/*--------------------------------*- C++ -*----------------------------------*\
  =========                 |
  \\      /  F ield         | OpenFOAM: The Open Source CFD Toolbox
   \\    /   O peration     | Website:  https://openfoam.org
    \\  /    A nd           | Version:  10
     \\/     M anipulation  |
\*---------------------------------------------------------------------------*/
FoamFile
{
    format      ascii;
    class       volScalarField;
    location    "100";
    object      alphat;
}
// * * * * * * * * * * * * * * * * * * * * * * * * * * * * * * * * * * * * * //

dimensions      [1 -1 -1 0 0 0 0];

internalField   nonuniform List<scalar> 
112000
(
0.00276629
0.00278836
0.00281313
0.00284149
0.00287114
0.00290059
0.00292939
0.00295755
0.00298509
0.00301195
0.00303796
0.00306295
0.00308675
0.00310913
0.00312972
0.00314791
0.00316265
0.00317215
0.00317373
0.00315885
0.00277516
0.00283646
0.00289491
0.00295195
0.00300702
0.00305957
0.00310944
0.00315675
0.00320165
0.0032442
0.00328433
0.0033219
0.00335678
0.00338876
0.00341748
0.00344237
0.00346249
0.00347622
0.00348176
0.00347251
0.00278154
0.00285269
0.00292269
0.00299095
0.00305679
0.00311964
0.00317919
0.00323538
0.00328833
0.0033381
0.00338462
0.00342777
0.00346738
0.00350323
0.00353498
0.00356203
0.00358336
0.00359724
0.00360179
0.00359028
0.00278242
0.00285512
0.00292864
0.00300209
0.00307418
0.00314385
0.00321041
0.00327356
0.00333317
0.00338915
0.00344132
0.00348949
0.00353345
0.00357294
0.00360756
0.00363668
0.00365917
0.00367309
0.00367624
0.00366115
0.00278226
0.00285523
0.00292975
0.00300491
0.00307919
0.00315141
0.00322083
0.00328707
0.00334993
0.00340922
0.0034647
0.00351614
0.00356327
0.0036058
0.00364326
0.00367492
0.00369957
0.00371511
0.00371903
0.00370325
0.00278197
0.0028549
0.00292951
0.00300497
0.00307979
0.00315283
0.00322338
0.00329103
0.00335557
0.00341676
0.00347432
0.00352795
0.00357734
0.00362214
0.00366181
0.00369558
0.00372216
0.00373935
0.00374449
0.00372908
0.00278172
0.00285461
0.0029292
0.00300469
0.00307961
0.00315283
0.00322364
0.00329166
0.00335667
0.00341845
0.00347671
0.00353115
0.00358146
0.00362726
0.00366803
0.00370294
0.0037307
0.00374908
0.00375537
0.00374088
0.00278153
0.00285439
0.00292895
0.00300443
0.00307934
0.00315257
0.00322341
0.00329151
0.00335664
0.00341859
0.00347708
0.00353181
0.00358247
0.00362868
0.00366991
0.00370533
0.00373365
0.00375261
0.0037595
0.00374554
0.0027814
0.00285424
0.00292879
0.00300426
0.00307915
0.00315237
0.00322321
0.00329129
0.00335643
0.00341839
0.00347691
0.00353169
0.00358242
0.00362873
0.00367008
0.00370566
0.00373416
0.00375332
0.00376045
0.00374673
0.00278133
0.00285417
0.00292871
0.00300417
0.00307906
0.00315227
0.00322309
0.00329117
0.00335629
0.00341825
0.00347676
0.00353155
0.00358228
0.0036286
0.00366998
0.00370558
0.00373412
0.00375332
0.00376051
0.00374684
0.00278133
0.00285417
0.00292871
0.00300417
0.00307906
0.00315227
0.00322309
0.00329117
0.00335629
0.00341825
0.00347676
0.00353155
0.00358228
0.0036286
0.00366998
0.00370558
0.00373412
0.00375332
0.00376051
0.00374684
0.00278139
0.00285424
0.00292879
0.00300425
0.00307915
0.00315237
0.0032232
0.00329129
0.00335643
0.0034184
0.00347692
0.00353169
0.00358242
0.00362873
0.00367008
0.00370566
0.00373416
0.00375332
0.00376045
0.00374674
0.00278152
0.00285438
0.00292895
0.00300442
0.00307934
0.00315257
0.00322341
0.00329151
0.00335664
0.00341859
0.00347708
0.00353182
0.00358248
0.00362869
0.00366991
0.00370534
0.00373366
0.00375261
0.0037595
0.00374555
0.00278171
0.0028546
0.00292919
0.00300469
0.0030796
0.00315283
0.00322364
0.00329166
0.00335667
0.00341845
0.00347671
0.00353116
0.00358147
0.00362727
0.00366803
0.00370294
0.00373071
0.00374908
0.00375537
0.00374088
0.00278197
0.0028549
0.00292951
0.00300497
0.00307978
0.00315283
0.00322337
0.00329103
0.00335557
0.00341676
0.00347432
0.00352795
0.00357735
0.00362215
0.00366183
0.00369559
0.00372217
0.00373935
0.00374449
0.00372908
0.00278225
0.00285522
0.00292974
0.00300491
0.00307918
0.0031514
0.00322082
0.00328706
0.00334993
0.00340922
0.00346471
0.00351614
0.00356328
0.00360581
0.00364327
0.00367493
0.00369958
0.00371512
0.00371904
0.00370326
0.00278242
0.00285511
0.00292863
0.00300208
0.00307417
0.00314384
0.00321041
0.00327355
0.00333317
0.00338915
0.00344133
0.0034895
0.00353346
0.00357296
0.00360759
0.0036367
0.00365919
0.00367312
0.00367626
0.00366117
0.00278153
0.00285268
0.00292268
0.00299094
0.00305678
0.00311964
0.00317919
0.00323539
0.00328834
0.00333811
0.00338463
0.00342779
0.00346741
0.00350327
0.00353502
0.00356206
0.00358339
0.00359728
0.00360182
0.00359032
0.00277515
0.00283645
0.0028949
0.00295195
0.00300703
0.00305959
0.00310947
0.00315679
0.0032017
0.00324425
0.00328439
0.00332198
0.00335687
0.00338884
0.00341756
0.00344245
0.00346258
0.00347631
0.00348185
0.0034726
0.00276628
0.00278835
0.00281311
0.00284146
0.00287111
0.00290056
0.00292936
0.00295751
0.00298505
0.00301191
0.00303792
0.00306292
0.00308672
0.0031091
0.00312968
0.00314786
0.00316261
0.00317211
0.00317369
0.00315882
0.00277533
0.00283578
0.00289293
0.00294829
0.00300134
0.00305154
0.00309876
0.00314312
0.00318485
0.00322413
0.00326088
0.00329501
0.00332637
0.00335481
0.00338002
0.00340153
0.00341846
0.00342936
0.00343208
0.00342272
0.026173
0.02358
0.0218159
0.0204902
0.0194382
0.0185702
0.017832
0.01719
0.0166219
0.0161082
0.0156389
0.0152069
0.0148072
0.0144365
0.0140936
0.0137795
0.0134983
0.0132603
0.0130982
0.0130401
0.028945
0.027642
0.0265217
0.0255126
0.0246003
0.0237726
0.023017
0.0223229
0.0216828
0.0210903
0.0205398
0.0200271
0.0195494
0.0191064
0.0186997
0.0183348
0.0180228
0.0177852
0.0176818
0.0177642
0.029152
0.0281302
0.0272768
0.026496
0.0257658
0.0250771
0.024423
0.0237998
0.0232057
0.0226395
0.0220997
0.0215853
0.0210961
0.0206337
0.0202014
0.019806
0.0194607
0.0191894
0.0190604
0.0191348
0.0291761
0.0282096
0.027439
0.0267565
0.0261271
0.0255327
0.0249622
0.0244095
0.023872
0.0233487
0.0228387
0.0223418
0.0218586
0.0213911
0.0209429
0.0205203
0.0201347
0.0198074
0.0196028
0.0195752
0.0291775
0.028218
0.0274642
0.0268098
0.0262172
0.0256654
0.0251405
0.024634
0.0241413
0.0236595
0.0231865
0.0227212
0.0222632
0.0218139
0.0213759
0.0209541
0.0205582
0.0202057
0.0199557
0.0198519
0.0291762
0.0282169
0.0274654
0.0268174
0.026236
0.0256997
0.0251939
0.0247094
0.0242407
0.0237841
0.0233366
0.0228962
0.0224618
0.0220339
0.0216143
0.0212069
0.02082
0.0204688
0.0202086
0.0200751
0.0291749
0.0282152
0.0274632
0.0268158
0.0262365
0.0257041
0.025204
0.0247269
0.0242674
0.0238216
0.0233862
0.0229589
0.0225383
0.0221246
0.021719
0.0213252
0.0209505
0.020609
0.0203547
0.0202185
0.0291739
0.0282141
0.0274615
0.0268138
0.0262346
0.025703
0.0252043
0.0247295
0.0242729
0.0238309
0.0234002
0.0229783
0.0225641
0.0221573
0.0217593
0.0213735
0.021007
0.0206736
0.0204267
0.0202952
0.0291734
0.0282135
0.0274607
0.0268127
0.0262335
0.0257019
0.0252034
0.024729
0.0242732
0.0238322
0.0234028
0.0229827
0.0225706
0.0221663
0.0217712
0.0213886
0.0210258
0.0206962
0.0204534
0.0203256
0.0291734
0.0282135
0.0274606
0.0268127
0.0262334
0.0257019
0.0252034
0.024729
0.0242732
0.0238322
0.0234028
0.0229827
0.0225705
0.0221663
0.0217712
0.0213886
0.0210257
0.0206962
0.0204534
0.0203256
0.0291739
0.0282141
0.0274615
0.0268138
0.0262346
0.025703
0.0252043
0.0247294
0.0242729
0.0238309
0.0234001
0.0229783
0.022564
0.0221573
0.0217593
0.0213735
0.021007
0.0206735
0.0204267
0.0202952
0.0291748
0.0282152
0.0274631
0.0268158
0.0262365
0.0257041
0.0252039
0.0247269
0.0242674
0.0238215
0.0233861
0.0229588
0.0225383
0.0221246
0.021719
0.0213252
0.0209505
0.020609
0.0203546
0.0202184
0.0291761
0.0282169
0.0274653
0.0268174
0.0262359
0.0256997
0.0251939
0.0247094
0.0242407
0.0237841
0.0233366
0.0228961
0.0224618
0.0220339
0.0216143
0.0212069
0.02082
0.0204687
0.0202086
0.0200751
0.0291774
0.028218
0.0274642
0.0268098
0.0262171
0.0256654
0.0251405
0.024634
0.0241413
0.0236595
0.0231865
0.0227212
0.0222633
0.021814
0.0213759
0.0209542
0.0205582
0.0202057
0.0199557
0.0198519
0.029176
0.0282095
0.0274389
0.0267565
0.0261271
0.0255327
0.0249622
0.0244095
0.0238721
0.0233488
0.0228388
0.0223418
0.0218587
0.0213913
0.0209431
0.0205204
0.0201348
0.0198075
0.0196029
0.0195753
0.029152
0.0281301
0.0272767
0.0264959
0.0257658
0.025077
0.024423
0.0237999
0.0232058
0.0226396
0.0220998
0.0215855
0.0210964
0.0206339
0.0202017
0.0198064
0.019461
0.0191898
0.0190608
0.0191352
0.0289449
0.0276418
0.0265216
0.0255125
0.0246002
0.0237726
0.0230169
0.0223229
0.0216828
0.0210903
0.0205398
0.0200271
0.0195495
0.0191065
0.0186999
0.0183351
0.0180231
0.0177856
0.0176823
0.0177648
0.026173
0.0235797
0.0218157
0.0204903
0.0194386
0.0185708
0.0178329
0.0171911
0.0166231
0.0161095
0.0156405
0.0152086
0.014809
0.0144383
0.0140955
0.0137813
0.0135002
0.0132623
0.0131003
0.0130422
0.00277533
0.00283572
0.00289284
0.00294819
0.00300123
0.00305143
0.00309864
0.00314301
0.00318473
0.00322401
0.00326077
0.00329491
0.00332628
0.00335471
0.00337993
0.00340143
0.00341837
0.00342928
0.00343201
0.00342267
0.00278297
0.00285372
0.00292291
0.00298996
0.00305424
0.00311518
0.00317251
0.00322622
0.00327647
0.00332335
0.00336708
0.00340754
0.00344458
0.00347808
0.00350783
0.00353346
0.00355439
0.00356967
0.00357803
0.00357767
0.028981
0.0276943
0.0265844
0.0255818
0.0246728
0.0238458
0.0230885
0.0223907
0.0217445
0.0211431
0.0205706
0.0200255
0.0195067
0.0190139
0.0185484
0.0181122
0.0177107
0.0173542
0.0170656
0.0168568
0.0334197
0.0335825
0.0335999
0.0334452
0.0331503
0.0327565
0.032295
0.0317892
0.031257
0.0307108
0.0301573
0.0296045
0.0290594
0.0285295
0.0280232
0.0275522
0.0271341
0.0267965
0.0265902
0.0265415
0.033866
0.034479
0.034899
0.035111
0.0351427
0.0350334
0.0348163
0.0345183
0.0341615
0.0337637
0.0333384
0.0328965
0.0324479
0.0320032
0.0315754
0.0311817
0.0308481
0.0306146
0.0305548
0.0307144
0.0339458
0.0347105
0.0352897
0.0356519
0.0358159
0.0358167
0.0356879
0.035458
0.0351518
0.0347895
0.034387
0.0339571
0.0335112
0.0330608
0.0326196
0.0322053
0.0318451
0.0315812
0.0314956
0.0316475
0.0339566
0.0347571
0.0353936
0.0358282
0.0360715
0.0361511
0.0360949
0.0359279
0.0356731
0.0353497
0.0349732
0.0345563
0.0341102
0.0336461
0.0331765
0.0327177
0.0322938
0.0319428
0.0317437
0.0317556
0.0339557
0.034761
0.0354111
0.0358698
0.0361467
0.0362669
0.0362554
0.0361347
0.0359252
0.0356441
0.0353054
0.03492
0.0344978
0.0340486
0.0335831
0.0331153
0.0326658
0.0322675
0.0319925
0.0318924
0.0339538
0.0347588
0.0354103
0.0358742
0.0361608
0.0362952
0.0363021
0.0362034
0.0360185
0.0357639
0.0354524
0.035094
0.0346973
0.0342709
0.0338243
0.0333695
0.0329249
0.0325193
0.0322202
0.032072
0.0339525
0.0347569
0.0354078
0.0358721
0.0361605
0.0362988
0.0363116
0.0362208
0.036046
0.0358034
0.0355054
0.0351619
0.034781
0.0343707
0.0339398
0.0334995
0.0330668
0.0326687
0.0323699
0.0322105
0.0339518
0.034756
0.0354064
0.0358704
0.036159
0.036298
0.0363122
0.0362236
0.0360519
0.0358132
0.0355201
0.0351824
0.034808
0.034405
0.0339817
0.0335491
0.0331238
0.0327321
0.0324376
0.0322783
0.0339518
0.034756
0.0354064
0.0358704
0.036159
0.036298
0.0363122
0.0362236
0.0360519
0.0358132
0.0355201
0.0351824
0.034808
0.0344049
0.0339817
0.0335491
0.0331238
0.0327321
0.0324376
0.0322783
0.0339524
0.0347569
0.0354078
0.0358721
0.0361605
0.0362988
0.0363115
0.0362208
0.036046
0.0358033
0.0355054
0.0351619
0.034781
0.0343707
0.0339397
0.0334995
0.0330668
0.0326687
0.0323699
0.0322104
0.0339538
0.0347588
0.0354103
0.0358742
0.0361607
0.0362952
0.0363021
0.0362034
0.0360185
0.0357639
0.0354524
0.035094
0.0346973
0.0342709
0.0338243
0.0333695
0.0329249
0.0325193
0.0322202
0.0320719
0.0339556
0.034761
0.035411
0.0358698
0.0361466
0.0362669
0.0362554
0.0361347
0.0359252
0.0356441
0.0353053
0.03492
0.0344978
0.0340486
0.0335831
0.0331153
0.0326658
0.0322675
0.0319924
0.0318924
0.0339565
0.034757
0.0353935
0.0358281
0.0360715
0.0361511
0.0360949
0.035928
0.0356731
0.0353497
0.0349732
0.0345563
0.0341103
0.0336462
0.0331766
0.0327178
0.0322938
0.0319429
0.0317438
0.0317557
0.0339457
0.0347104
0.0352897
0.0356519
0.0358158
0.0358167
0.0356878
0.035458
0.0351518
0.0347895
0.0343871
0.0339572
0.0335113
0.033061
0.0326198
0.0322056
0.0318454
0.0315815
0.031496
0.0316479
0.0338659
0.0344789
0.034899
0.035111
0.0351427
0.0350334
0.0348163
0.0345184
0.0341616
0.0337638
0.0333386
0.0328968
0.0324483
0.0320038
0.031576
0.0311824
0.0308489
0.0306155
0.0305559
0.0307156
0.0334196
0.0335821
0.0335995
0.0334448
0.0331498
0.0327559
0.0322944
0.0317885
0.0312562
0.0307101
0.0301567
0.0296039
0.029059
0.0285291
0.028023
0.0275521
0.0271342
0.0267968
0.0265907
0.0265422
0.0289809
0.0276939
0.0265841
0.025582
0.0246735
0.023847
0.0230901
0.0223925
0.0217465
0.0211453
0.020573
0.0200281
0.0195094
0.0190166
0.0185511
0.0181148
0.0177134
0.017357
0.0170684
0.0168595
0.00278296
0.00285366
0.00292282
0.00298985
0.00305411
0.00311506
0.00317239
0.0032261
0.00327634
0.00332323
0.00336697
0.00340743
0.00344449
0.003478
0.00350774
0.00353337
0.00355431
0.0035696
0.00357798
0.00357763
0.00278525
0.00285766
0.00293052
0.00300294
0.00307365
0.00314159
0.00320613
0.003267
0.00332415
0.00337752
0.00342699
0.00347248
0.00351393
0.00355127
0.00358442
0.00361351
0.0036382
0.00365799
0.00367231
0.00368052
0.0292055
0.0282038
0.027365
0.0265949
0.025873
0.0251911
0.0245431
0.0239257
0.0233371
0.0227758
0.0222398
0.0217275
0.0212382
0.0207728
0.0203355
0.0199152
0.019518
0.0191553
0.0188447
0.0185968
0.0339154
0.0345459
0.0349791
0.0352013
0.0352409
0.0351377
0.034925
0.0346295
0.0342728
0.0338723
0.033441
0.0329895
0.0325279
0.032065
0.0316046
0.0311606
0.0307521
0.0304061
0.0301616
0.0300431
0.0351063
0.0354124
0.0358346
0.0362772
0.0366763
0.037005
0.0372519
0.0374134
0.0374919
0.0374932
0.0374246
0.0372942
0.0371112
0.0368887
0.0366427
0.0363945
0.0361735
0.0360212
0.0359976
0.0361453
0.0353332
0.0357906
0.0362654
0.0367245
0.0371375
0.0374919
0.037782
0.038005
0.0381602
0.0382492
0.0382748
0.0382414
0.0381559
0.0380284
0.0378738
0.0377137
0.0375798
0.0375192
0.0376043
0.0378925
0.0353812
0.0359377
0.0365043
0.0370379
0.0375081
0.0379028
0.0382179
0.0384526
0.0386088
0.0386901
0.0387004
0.038645
0.0385304
0.0383664
0.0381667
0.0379513
0.0377506
0.0376107
0.0376074
0.0378078
0.0353863
0.0359678
0.0365726
0.0371536
0.0376762
0.0381241
0.0384888
0.0387667
0.0389577
0.0390639
0.0390885
0.0390359
0.0389118
0.0387247
0.0384864
0.0382147
0.0379363
0.0376926
0.0375557
0.0375929
0.0353845
0.0359698
0.0365839
0.0371807
0.0377256
0.0382013
0.038598
0.0389099
0.0391351
0.039274
0.0393282
0.0393004
0.0391946
0.0390175
0.038779
0.0384939
0.0381855
0.0378898
0.0376736
0.037599
0.0353827
0.0359681
0.0365834
0.0371836
0.0377349
0.0382203
0.0386302
0.0389583
0.0392023
0.0393617
0.0394375
0.039431
0.0393455
0.0391863
0.0389617
0.0386848
0.0383761
0.0380683
0.0378237
0.0376997
0.0353818
0.0359669
0.0365821
0.0371828
0.0377353
0.0382232
0.0386369
0.0389705
0.0392214
0.0393891
0.0394743
0.0394782
0.0394035
0.039255
0.0390403
0.0387717
0.0384684
0.0381614
0.0379111
0.0377721
0.0353818
0.0359669
0.0365821
0.0371827
0.0377352
0.0382232
0.0386369
0.0389705
0.0392214
0.0393891
0.0394743
0.0394782
0.0394035
0.039255
0.0390404
0.0387717
0.0384684
0.0381614
0.0379111
0.0377721
0.0353827
0.035968
0.0365834
0.0371836
0.0377348
0.0382203
0.0386302
0.0389583
0.0392023
0.0393617
0.0394375
0.039431
0.0393455
0.0391863
0.0389617
0.0386848
0.0383762
0.0380683
0.0378237
0.0376997
0.0353844
0.0359697
0.0365838
0.0371806
0.0377256
0.0382013
0.038598
0.0389099
0.0391351
0.039274
0.0393282
0.0393004
0.0391946
0.0390175
0.038779
0.038494
0.0381855
0.0378899
0.0376737
0.037599
0.0353862
0.0359678
0.0365726
0.0371536
0.0376762
0.0381241
0.0384889
0.0387668
0.0389577
0.0390639
0.0390886
0.039036
0.0389119
0.0387247
0.0384865
0.0382148
0.0379364
0.0376926
0.0375558
0.0375929
0.0353812
0.0359377
0.0365043
0.0370379
0.037508
0.0379027
0.0382178
0.0384526
0.0386088
0.0386901
0.0387005
0.038645
0.0385305
0.0383665
0.0381668
0.0379515
0.0377508
0.0376108
0.0376076
0.037808
0.0353331
0.0357905
0.0362654
0.0367245
0.0371375
0.0374919
0.037782
0.038005
0.0381602
0.0382492
0.0382749
0.0382415
0.0381561
0.0380286
0.0378741
0.0377141
0.0375803
0.0375198
0.0376049
0.0378933
0.0351062
0.0354122
0.0358344
0.0362771
0.0366762
0.0370049
0.0372518
0.0374135
0.037492
0.0374933
0.0374248
0.0372945
0.0371117
0.0368893
0.0366435
0.0363954
0.0361746
0.0360224
0.0359991
0.036147
0.0339152
0.0345454
0.0349784
0.0352005
0.03524
0.0351367
0.034924
0.0346284
0.0342716
0.033871
0.0334397
0.0329883
0.0325268
0.0320641
0.0316039
0.0311601
0.0307519
0.0304062
0.030162
0.0300438
0.0292054
0.0282033
0.0273648
0.0265951
0.0258738
0.0251923
0.0245448
0.0239277
0.0233392
0.0227781
0.0222422
0.02173
0.0212407
0.0207753
0.020338
0.0199178
0.0195205
0.0191579
0.0188473
0.0185995
0.00278524
0.0028576
0.00293042
0.00300283
0.00307352
0.00314146
0.003206
0.00326688
0.00332403
0.00337739
0.00342688
0.00347238
0.00351384
0.00355119
0.00358434
0.00361342
0.00363813
0.00365793
0.00367226
0.00368048
0.00278678
0.00285957
0.0029336
0.00300795
0.00308109
0.00315187
0.00321956
0.00328386
0.00334462
0.0034017
0.00345497
0.0035043
0.00354964
0.00359095
0.00362819
0.00366155
0.00369086
0.00371596
0.00373671
0.00375313
0.0292476
0.0283025
0.0275491
0.0268807
0.0262635
0.025681
0.0251228
0.0245838
0.024062
0.0235568
0.0230674
0.0225941
0.0221377
0.0217004
0.0212858
0.0208884
0.020516
0.0201779
0.0198865
0.0196489
0.0340243
0.0348182
0.0354252
0.0358148
0.0360064
0.0360356
0.035936
0.0357363
0.0354613
0.0351312
0.0347618
0.0343657
0.0339545
0.0335401
0.0331337
0.0327424
0.0323851
0.0320856
0.0318732
0.0317662
0.0353903
0.0358728
0.0363742
0.036862
0.0373059
0.0376934
0.0380187
0.0382785
0.0384722
0.0386011
0.038668
0.0386775
0.0386368
0.0385554
0.0384461
0.0383288
0.0382307
0.0381887
0.0382491
0.038446
0.0362958
0.0363835
0.0365881
0.0368752
0.0372001
0.037537
0.0378705
0.0381892
0.0384838
0.0387467
0.0389719
0.0391553
0.0392964
0.0393993
0.0394744
0.0395393
0.0396224
0.039765
0.0400234
0.0404433
0.0364759
0.0366956
0.0369396
0.0372111
0.0374915
0.0377693
0.0380375
0.0382907
0.0385234
0.0387305
0.0389069
0.0390485
0.0391537
0.039225
0.0392706
0.0393064
0.0393593
0.0394712
0.0397027
0.0401092
0.0365088
0.0368057
0.0371215
0.0374504
0.0377737
0.0380796
0.0383609
0.0386126
0.0388306
0.0390109
0.0391493
0.0392425
0.0392889
0.0392905
0.0392542
0.0391942
0.0391351
0.0391163
0.0391985
0.0394418
0.0365107
0.0368271
0.0371718
0.0375353
0.0378967
0.0382415
0.0385596
0.0388434
0.039087
0.039285
0.0394321
0.0395237
0.0395574
0.0395334
0.0394569
0.0393395
0.0392027
0.0390817
0.0390338
0.0391187
0.0365087
0.0368283
0.0371802
0.0375554
0.0379327
0.0382973
0.0386383
0.0389469
0.0392154
0.0394373
0.0396057
0.0397149
0.0397606
0.0397416
0.0396612
0.0395287
0.0393624
0.0391939
0.0390766
0.0390675
0.0365075
0.0368273
0.0371806
0.0375584
0.03794
0.038311
0.0386607
0.0389797
0.0392602
0.0394948
0.0396763
0.039798
0.0398548
0.0398447
0.0397697
0.0396379
0.0394658
0.0392829
0.0391402
0.039093
0.0365075
0.0368273
0.0371805
0.0375583
0.03794
0.038311
0.0386607
0.0389797
0.0392602
0.0394948
0.0396763
0.039798
0.0398548
0.0398447
0.0397698
0.0396379
0.0394658
0.0392829
0.0391402
0.039093
0.0365087
0.0368283
0.0371802
0.0375554
0.0379326
0.0382973
0.0386383
0.0389469
0.0392155
0.0394373
0.0396057
0.0397149
0.0397606
0.0397416
0.0396612
0.0395287
0.0393624
0.0391939
0.0390766
0.0390675
0.0365107
0.0368271
0.0371717
0.0375353
0.0378967
0.0382415
0.0385596
0.0388434
0.039087
0.039285
0.0394321
0.0395238
0.0395574
0.0395334
0.0394569
0.0393396
0.0392028
0.0390818
0.0390338
0.0391186
0.0365087
0.0368057
0.0371215
0.0374504
0.0377737
0.0380796
0.0383609
0.0386126
0.0388306
0.0390109
0.0391493
0.0392425
0.0392889
0.0392906
0.0392543
0.0391943
0.0391352
0.0391164
0.0391985
0.0394418
0.0364758
0.0366955
0.0369396
0.0372111
0.0374916
0.0377693
0.0380376
0.0382907
0.0385234
0.0387305
0.0389069
0.0390485
0.0391537
0.0392251
0.0392707
0.0393065
0.0393595
0.0394714
0.0397029
0.0401094
0.0362957
0.0363834
0.036588
0.0368751
0.0372001
0.037537
0.0378705
0.0381892
0.0384839
0.0387468
0.0389719
0.0391554
0.0392965
0.0393996
0.0394747
0.0395397
0.0396228
0.0397655
0.040024
0.0404442
0.0353902
0.0358724
0.0363738
0.0368617
0.0373057
0.0376932
0.0380186
0.0382785
0.0384722
0.0386011
0.0386681
0.0386777
0.0386372
0.038556
0.0384469
0.0383297
0.0382317
0.0381899
0.0382506
0.0384476
0.0340242
0.0348176
0.0354245
0.035814
0.0360055
0.0360346
0.0359349
0.0357351
0.03546
0.0351298
0.0347603
0.0343644
0.0339533
0.033539
0.0331328
0.0327418
0.0323847
0.0320855
0.0318735
0.0317668
0.0292475
0.028302
0.0275488
0.0268809
0.0262643
0.0256823
0.0251245
0.0245858
0.0240642
0.023559
0.0230698
0.0225965
0.0221402
0.0217029
0.0212882
0.0208909
0.0205185
0.0201804
0.019889
0.0196514
0.00278677
0.00285951
0.0029335
0.00300783
0.00308096
0.00315174
0.00321944
0.00328374
0.0033445
0.00340159
0.00345486
0.00350421
0.00354956
0.00359087
0.00362811
0.00366148
0.0036908
0.0037159
0.00373667
0.0037531
0.00278847
0.00286131
0.00293559
0.00301047
0.00308446
0.00315642
0.00322567
0.00329187
0.00335485
0.00341444
0.00347047
0.00352277
0.00357128
0.00361597
0.00365681
0.00369379
0.00372698
0.00375673
0.00378319
0.00380665
0.0292692
0.0283307
0.0275944
0.0269549
0.0263761
0.0258383
0.0253286
0.0248398
0.0243682
0.0239118
0.0234692
0.0230402
0.0226256
0.0222276
0.0218497
0.0214965
0.0211746
0.0208803
0.0206245
0.0204141
0.0340604
0.0348931
0.0355626
0.0360319
0.0363124
0.0364328
0.0364215
0.0363048
0.0361062
0.0358459
0.0355404
0.0352034
0.0348476
0.0344854
0.0341303
0.033798
0.033501
0.033256
0.0330863
0.0330075
0.0354719
0.0360641
0.0366715
0.0372522
0.0377764
0.0382329
0.0386182
0.0389324
0.0391778
0.0393588
0.0394804
0.0395489
0.0395723
0.0395621
0.0395334
0.0395035
0.0394959
0.0395422
0.039679
0.0399335
0.0365345
0.0367762
0.0370442
0.0373434
0.0376568
0.0379738
0.0382888
0.0385971
0.0388946
0.0391766
0.0394391
0.0396787
0.039895
0.0400917
0.040277
0.0404668
0.0406853
0.0409672
0.0413559
0.0418873
0.0373348
0.0373189
0.0373821
0.0375119
0.0376789
0.0378651
0.0380616
0.0382637
0.0384677
0.0386704
0.038868
0.0390571
0.0392364
0.0394075
0.0395774
0.0397602
0.0399791
0.0402698
0.0406793
0.0412507
0.0374838
0.0375892
0.0377028
0.0378376
0.0379826
0.0381294
0.0382739
0.0384137
0.0385475
0.0386733
0.0387885
0.0388902
0.0389768
0.0390498
0.0391152
0.0391859
0.0392841
0.0394446
0.0397159
0.0401468
0.0375078
0.0376765
0.0378498
0.0380333
0.0382158
0.038389
0.0385482
0.0386911
0.0388162
0.0389219
0.0390057
0.0390646
0.0390964
0.0391019
0.0390857
0.0390589
0.0390418
0.0390667
0.0391813
0.0394367
0.0375086
0.0376933
0.0378897
0.0381004
0.0383124
0.0385158
0.0387036
0.0388716
0.0390165
0.0391357
0.0392253
0.0392815
0.0393011
0.0392833
0.0392314
0.0391548
0.0390712
0.0390107
0.0390187
0.0391467
0.0375073
0.0376947
0.037897
0.0381164
0.0383398
0.0385568
0.03876
0.0389439
0.0391042
0.039237
0.0393379
0.0394018
0.0394247
0.0394048
0.0393444
0.0392513
0.0391421
0.0390451
0.0390044
0.0390708
0.0375073
0.0376947
0.037897
0.0381164
0.0383398
0.0385568
0.03876
0.0389439
0.0391042
0.039237
0.0393379
0.0394018
0.0394247
0.0394049
0.0393444
0.0392513
0.0391421
0.0390451
0.0390044
0.0390708
0.0375086
0.0376933
0.0378897
0.0381004
0.0383124
0.0385158
0.0387037
0.0388716
0.0390166
0.0391357
0.0392253
0.0392815
0.0393011
0.0392833
0.0392315
0.0391548
0.0390712
0.0390107
0.0390187
0.0391467
0.0375078
0.0376765
0.0378498
0.0380332
0.0382157
0.0383889
0.0385482
0.0386911
0.0388162
0.0389219
0.0390057
0.0390646
0.0390965
0.0391019
0.0390857
0.0390589
0.0390418
0.0390667
0.0391813
0.0394367
0.0374837
0.0375892
0.0377028
0.0378376
0.0379826
0.0381295
0.0382739
0.0384137
0.0385475
0.0386733
0.0387885
0.0388902
0.0389768
0.0390498
0.0391153
0.039186
0.0392841
0.0394446
0.0397159
0.0401467
0.0373347
0.0373188
0.037382
0.0375119
0.0376789
0.0378651
0.0380617
0.0382637
0.0384678
0.0386704
0.038868
0.0390571
0.0392364
0.0394075
0.0395775
0.0397603
0.0399793
0.0402699
0.0406794
0.0412509
0.0365344
0.036776
0.037044
0.0373432
0.0376566
0.0379737
0.0382887
0.0385971
0.0388946
0.0391766
0.0394391
0.0396788
0.0398952
0.0400919
0.0402773
0.0404671
0.0406857
0.0409677
0.0413565
0.041888
0.0354718
0.0360637
0.0366711
0.0372519
0.0377761
0.0382326
0.0386181
0.0389323
0.0391778
0.0393589
0.0394805
0.0395491
0.0395727
0.0395626
0.039534
0.0395043
0.0394969
0.0395434
0.0396804
0.0399351
0.0340603
0.0348926
0.0355619
0.0360311
0.0363115
0.0364318
0.0364204
0.0363036
0.0361048
0.0358445
0.0355389
0.035202
0.0348463
0.0344843
0.0341294
0.0337972
0.0335006
0.0332559
0.0330866
0.0330081
0.0292691
0.0283302
0.0275941
0.0269552
0.0263769
0.0258396
0.0253303
0.0248418
0.0243703
0.023914
0.0234715
0.0230426
0.022628
0.02223
0.021852
0.0214989
0.0211769
0.0208826
0.0206268
0.0204164
0.00278846
0.00286126
0.0029355
0.00301036
0.00308433
0.00315629
0.00322555
0.00329175
0.00335474
0.00341434
0.00347037
0.00352269
0.00357121
0.0036159
0.00365674
0.00369373
0.00372692
0.00375668
0.00378316
0.00380663
0.00279042
0.00286331
0.00293774
0.0030129
0.00308733
0.0031599
0.00322993
0.00329712
0.0033613
0.00342233
0.00348004
0.00353429
0.00358504
0.00363228
0.00367606
0.00371642
0.00375347
0.00378757
0.00381916
0.00384868
0.0292907
0.0283517
0.0276179
0.0269861
0.0264203
0.0259005
0.0254131
0.0249501
0.0245071
0.0240815
0.0236714
0.0232757
0.022895
0.0225312
0.0221876
0.0218687
0.0215807
0.0213257
0.0211074
0.0209323
0.0340865
0.0349251
0.0356105
0.0361075
0.0364266
0.0365939
0.0366355
0.0365753
0.0364351
0.0362338
0.0359869
0.0357076
0.0354083
0.0351013
0.0348
0.034519
0.0342753
0.0340824
0.0339565
0.0339122
0.0355066
0.0361264
0.0367772
0.0374133
0.0380012
0.0385258
0.0389803
0.0393627
0.0396745
0.0399202
0.0401052
0.0402366
0.0403233
0.0403774
0.0404144
0.0404536
0.0405178
0.0406318
0.0408263
0.041126
0.0366046
0.0369328
0.0372852
0.0376587
0.0380365
0.038409
0.0387714
0.0391211
0.0394564
0.0397759
0.040078
0.0403621
0.0406298
0.0408861
0.0411409
0.0414097
0.0417141
0.042084
0.042555
0.0431577
0.0375436
0.0376683
0.0378027
0.0379619
0.0381363
0.038319
0.0385072
0.0387003
0.0388986
0.0391022
0.0393101
0.0395216
0.0397372
0.0399604
0.0401994
0.0404679
0.0407874
0.0411886
0.04171
0.0423877
0.0382537
0.0381926
0.0381884
0.0382362
0.0383135
0.0384053
0.0385038
0.0386055
0.0387095
0.0388156
0.0389233
0.0390322
0.039143
0.0392593
0.0393888
0.0395451
0.0397498
0.040034
0.0404386
0.0410048
0.0383799
0.0384273
0.0384748
0.0385378
0.0386086
0.0386798
0.038747
0.0388082
0.0388632
0.0389119
0.038954
0.0389887
0.0390162
0.0390392
0.0390645
0.0391049
0.0391808
0.0393228
0.0395723
0.0399738
0.0383989
0.0384996
0.0385975
0.0387017
0.0388047
0.0388991
0.0389803
0.0390459
0.0390955
0.0391291
0.0391465
0.0391466
0.0391293
0.0390967
0.0390547
0.0390152
0.0389976
0.0390316
0.0391584
0.0394246
0.0384
0.0385138
0.0386298
0.0387545
0.0388786
0.0389937
0.0390931
0.0391732
0.0392324
0.0392703
0.0392857
0.0392777
0.0392455
0.0391909
0.0391194
0.0390422
0.0389782
0.0389567
0.0390187
0.0392118
0.0384
0.0385138
0.0386298
0.0387545
0.0388786
0.0389937
0.0390931
0.0391732
0.0392324
0.0392703
0.0392858
0.0392777
0.0392455
0.0391909
0.0391194
0.0390422
0.0389782
0.0389567
0.0390187
0.0392118
0.0383988
0.0384995
0.0385975
0.0387017
0.0388047
0.0388991
0.0389803
0.0390459
0.0390955
0.0391291
0.0391465
0.0391466
0.0391293
0.0390967
0.0390548
0.0390152
0.0389976
0.0390315
0.0391583
0.0394246
0.0383798
0.0384272
0.0384748
0.0385379
0.0386087
0.0386799
0.0387471
0.0388082
0.0388632
0.0389119
0.0389539
0.0389886
0.0390162
0.0390392
0.0390646
0.0391049
0.0391807
0.0393227
0.0395722
0.0399737
0.0382537
0.0381925
0.0381883
0.0382361
0.0383135
0.0384053
0.0385038
0.0386055
0.0387095
0.0388156
0.0389233
0.0390322
0.039143
0.0392593
0.0393888
0.0395451
0.0397497
0.040034
0.0404385
0.0410047
0.0375435
0.0376681
0.0378025
0.0379617
0.0381362
0.0383189
0.0385071
0.0387003
0.0388986
0.0391022
0.0393101
0.0395216
0.0397372
0.0399605
0.0401995
0.040468
0.0407875
0.0411887
0.0417101
0.0423877
0.0366045
0.0369325
0.0372849
0.0376584
0.0380363
0.0384088
0.0387713
0.0391211
0.0394564
0.0397759
0.040078
0.0403622
0.0406299
0.0408863
0.0411412
0.04141
0.0417145
0.0420845
0.0425556
0.0431584
0.0355065
0.0361261
0.0367768
0.037413
0.0380009
0.0385255
0.0389802
0.0393626
0.0396745
0.0399202
0.0401053
0.0402368
0.0403236
0.0403779
0.040415
0.0404543
0.0405187
0.0406329
0.0408276
0.0411274
0.0340863
0.0349246
0.0356098
0.0361067
0.0364257
0.0365929
0.0366344
0.0365741
0.0364337
0.0362323
0.0359854
0.0357062
0.035407
0.0351002
0.034799
0.0345183
0.0342748
0.0340822
0.0339567
0.0339127
0.0292906
0.0283512
0.0276176
0.0269863
0.0264211
0.0259018
0.0254148
0.024952
0.0245092
0.0240837
0.0236736
0.023278
0.0228974
0.0225336
0.0221899
0.0218709
0.0215829
0.0213279
0.0211096
0.0209345
0.00279041
0.00286326
0.00293764
0.00301279
0.0030872
0.00315977
0.00322981
0.003297
0.00336119
0.00342222
0.00347994
0.00353421
0.00358497
0.00363222
0.00367599
0.00371637
0.00375342
0.00378753
0.00381913
0.00384866
0.00279259
0.00286556
0.00294013
0.00301554
0.0030903
0.00316333
0.00323396
0.00330189
0.003367
0.00342916
0.00348821
0.00354406
0.00359667
0.0036461
0.00369242
0.00373574
0.00377622
0.00381407
0.00384989
0.00388429
0.029314
0.028374
0.0276402
0.0270103
0.0264488
0.0259358
0.0254579
0.025007
0.0245788
0.0241706
0.0237802
0.0234067
0.0230503
0.0227127
0.0223971
0.0221075
0.0218497
0.0216304
0.0214503
0.0213126
0.0341136
0.0349529
0.0356416
0.0361466
0.0364792
0.0366656
0.0367316
0.0367007
0.036594
0.0364299
0.0362234
0.035987
0.0357326
0.0354719
0.0352176
0.0349834
0.0347844
0.0346374
0.0345557
0.03455
0.0355355
0.0361599
0.0368221
0.037478
0.0380941
0.0386545
0.0391514
0.0395812
0.0399447
0.0402451
0.0404874
0.0406779
0.0408254
0.0409415
0.0410412
0.0411425
0.0412674
0.0414414
0.0416875
0.0420298
0.0366398
0.0369895
0.0373752
0.0377906
0.0382169
0.0386423
0.03906
0.0394658
0.0398574
0.0402335
0.040593
0.0409358
0.0412643
0.0415842
0.0419056
0.0422437