/*--------------------------------*- C++ -*----------------------------------*\
  =========                 |
  \\      /  F ield         | OpenFOAM: The Open Source CFD Toolbox
   \\    /   O peration     | Website:  https://openfoam.org
    \\  /    A nd           | Version:  10
     \\/     M anipulation  |
\*---------------------------------------------------------------------------*/
FoamFile
{
    format      ascii;
    class       volScalarField;
    location    "100";
    object      epsilon;
}
// * * * * * * * * * * * * * * * * * * * * * * * * * * * * * * * * * * * * * //

dimensions      [0 2 -3 0 0 0 0];

internalField   nonuniform List<scalar> 
112000
(
3.15901e+06
3.26686e+06
3.38096e+06
3.50018e+06
3.62246e+06
3.74692e+06
3.87354e+06
4.00262e+06
4.13453e+06
4.26961e+06
4.4083e+06
4.55124e+06
4.6993e+06
4.85352e+06
5.01516e+06
5.18571e+06
5.36691e+06
5.56036e+06
5.77306e+06
5.95434e+06
3.26484e+06
3.49032e+06
3.71814e+06
3.9481e+06
4.17872e+06
4.40916e+06
4.63925e+06
4.86915e+06
5.09913e+06
5.32941e+06
5.56034e+06
5.79247e+06
6.02668e+06
6.26414e+06
6.50641e+06
6.75558e+06
7.01465e+06
7.28792e+06
7.59289e+06
7.8794e+06
3.27855e+06
3.53741e+06
3.80824e+06
4.08657e+06
4.36883e+06
4.65252e+06
4.93613e+06
5.21886e+06
5.50035e+06
5.78042e+06
6.05906e+06
6.33658e+06
6.61362e+06
6.8912e+06
7.17076e+06
7.45427e+06
7.74463e+06
8.04598e+06
8.37778e+06
8.68273e+06
3.28137e+06
3.5493e+06
3.83685e+06
4.13872e+06
4.45024e+06
4.76769e+06
5.08827e+06
5.40999e+06
5.73136e+06
6.05125e+06
6.36886e+06
6.68384e+06
6.99634e+06
7.30694e+06
7.61671e+06
7.92719e+06
8.24069e+06
8.56028e+06
8.90464e+06
9.20547e+06
3.2816e+06
3.55084e+06
3.84197e+06
4.15e+06
4.47033e+06
4.79927e+06
5.13397e+06
5.47219e+06
5.81215e+06
6.15235e+06
6.49168e+06
6.82947e+06
7.16556e+06
7.50026e+06
7.83433e+06
8.16896e+06
8.50606e+06
8.84789e+06
9.2123e+06
9.52265e+06
3.28154e+06
3.5507e+06
3.84227e+06
4.15166e+06
4.47459e+06
4.80768e+06
5.14832e+06
5.49441e+06
5.84415e+06
6.19599e+06
6.54866e+06
6.90132e+06
7.25357e+06
7.60549e+06
7.95759e+06
8.31087e+06
8.66701e+06
9.02792e+06
9.4113e+06
9.73482e+06
3.2815e+06
3.55052e+06
3.842e+06
4.15148e+06
4.47474e+06
4.80853e+06
5.15033e+06
5.49818e+06
5.85042e+06
6.20557e+06
6.56247e+06
6.92033e+06
7.27884e+06
7.63811e+06
7.99874e+06
8.36179e+06
8.72902e+06
9.10243e+06
9.50005e+06
9.8372e+06
3.28148e+06
3.55041e+06
3.84178e+06
4.15117e+06
4.47439e+06
4.80823e+06
5.15023e+06
5.49852e+06
5.85149e+06
6.20777e+06
6.56623e+06
6.92617e+06
7.28732e+06
7.64988e+06
8.01448e+06
8.38227e+06
8.75511e+06
9.13514e+06
9.54075e+06
9.88621e+06
3.28148e+06
3.55036e+06
3.84166e+06
4.15097e+06
4.47412e+06
4.8079e+06
5.14985e+06
5.49811e+06
5.85112e+06
6.20751e+06
6.5662e+06
6.92654e+06
7.2883e+06
7.65173e+06
8.01753e+06
8.38693e+06
8.76187e+06
9.14464e+06
9.55394e+06
9.90379e+06
3.28148e+06
3.55034e+06
3.84161e+06
4.15088e+06
4.47399e+06
4.80772e+06
5.14963e+06
5.49785e+06
5.85082e+06
6.2072e+06
6.56593e+06
6.92635e+06
7.28826e+06
7.65193e+06
8.01809e+06
8.38799e+06
8.76363e+06
9.14736e+06
9.558e+06
9.90953e+06
3.28148e+06
3.55034e+06
3.84161e+06
4.15088e+06
4.474e+06
4.80773e+06
5.14963e+06
5.49785e+06
5.85083e+06
6.20721e+06
6.56594e+06
6.92636e+06
7.28827e+06
7.65195e+06
8.01811e+06
8.38801e+06
8.76366e+06
9.14738e+06
9.55803e+06
9.90956e+06
3.28148e+06
3.55036e+06
3.84166e+06
4.15098e+06
4.47413e+06
4.80791e+06
5.14986e+06
5.49813e+06
5.85114e+06
6.20753e+06
6.56623e+06
6.92656e+06
7.28832e+06
7.65176e+06
8.01756e+06
8.38697e+06
8.76192e+06
9.1447e+06
9.55401e+06
9.90387e+06
3.28149e+06
3.55041e+06
3.84179e+06
4.15117e+06
4.4744e+06
4.80824e+06
5.15025e+06
5.49854e+06
5.85152e+06
6.2078e+06
6.56626e+06
6.9262e+06
7.28736e+06
7.64992e+06
8.01453e+06
8.38234e+06
8.75519e+06
9.13523e+06
9.54086e+06
9.88634e+06
3.2815e+06
3.55052e+06
3.84201e+06
4.15149e+06
4.47476e+06
4.80855e+06
5.15036e+06
5.49821e+06
5.85045e+06
6.20561e+06
6.56251e+06
6.92038e+06
7.2789e+06
7.63819e+06
7.99883e+06
8.36189e+06
8.72913e+06
9.10256e+06
9.50021e+06
9.83739e+06
3.28154e+06
3.5507e+06
3.84228e+06
4.15168e+06
4.47461e+06
4.80771e+06
5.14835e+06
5.49444e+06
5.84419e+06
6.19603e+06
6.54871e+06
6.90138e+06
7.25365e+06
7.60559e+06
7.95771e+06
8.311e+06
8.66715e+06
9.02809e+06
9.4115e+06
9.73507e+06
3.2816e+06
3.55084e+06
3.84197e+06
4.15001e+06
4.47034e+06
4.79929e+06
5.13398e+06
5.47222e+06
5.81219e+06
6.1524e+06
6.49174e+06
6.82955e+06
7.16567e+06
7.5004e+06
7.83449e+06
8.16915e+06
8.50626e+06
8.84812e+06
9.21258e+06
9.52297e+06
3.28137e+06
3.5493e+06
3.83684e+06
4.13872e+06
4.45024e+06
4.76769e+06
5.08828e+06
5.41001e+06
5.73141e+06
6.05131e+06
6.36894e+06
6.68394e+06
6.99647e+06
7.30711e+06
7.61691e+06
7.92742e+06
8.24095e+06
8.56058e+06
8.90499e+06
9.20587e+06
3.27855e+06
3.53739e+06
3.80823e+06
4.08655e+06
4.36883e+06
4.65254e+06
4.93616e+06
5.21891e+06
5.50042e+06
5.78051e+06
6.05919e+06
6.33674e+06
6.61381e+06
6.89143e+06
7.17103e+06
7.45459e+06
7.74501e+06
8.04641e+06
8.37828e+06
8.68328e+06
3.26484e+06
3.49029e+06
3.71812e+06
3.94813e+06
4.17881e+06
4.40931e+06
4.63945e+06
4.8694e+06
5.09943e+06
5.32977e+06
5.56076e+06
5.79296e+06
6.02722e+06
6.26473e+06
6.50705e+06
6.75628e+06
7.01542e+06
7.28877e+06
7.59383e+06
7.88043e+06
3.15901e+06
3.26679e+06
3.38085e+06
3.50003e+06
3.6223e+06
3.74673e+06
3.87332e+06
4.00237e+06
4.13425e+06
4.26931e+06
4.40799e+06
4.55092e+06
4.69895e+06
4.85314e+06
5.01476e+06
5.1853e+06
5.36651e+06
5.55997e+06
5.7727e+06
5.95399e+06
3.26358e+06
3.48577e+06
3.7083e+06
3.93095e+06
4.15222e+06
4.37119e+06
4.58761e+06
4.80158e+06
5.01335e+06
5.22378e+06
5.43308e+06
5.64169e+06
5.85037e+06
6.06019e+06
6.27253e+06
6.48909e+06
6.7119e+06
6.94298e+06
7.18781e+06
7.42692e+06
774236
1.01358e+06
1.22394e+06
1.41562e+06
1.5938e+06
1.7604e+06
1.91617e+06
2.06168e+06
2.19745e+06
2.32423e+06
2.44224e+06
2.55176e+06
2.65333e+06
2.74784e+06
2.83676e+06
2.92257e+06
3.00972e+06
3.10625e+06
3.237e+06
3.41465e+06
726361
937622
1.12606e+06
1.29666e+06
1.45339e+06
1.59829e+06
1.73228e+06
1.85598e+06
1.96985e+06
2.07421e+06
2.16926e+06
2.25514e+06
2.3321e+06
2.40059e+06
2.46144e+06
2.51625e+06
2.56813e+06
2.62297e+06
2.70247e+06
2.81684e+06
731573
953323
1.15606e+06
1.34233e+06
1.51438e+06
1.67328e+06
1.81942e+06
1.95306e+06
2.07448e+06
2.1839e+06
2.28143e+06
2.36714e+06
2.44118e+06
2.50379e+06
2.55551e+06
2.59736e+06
2.63153e+06
2.66214e+06
2.70838e+06
2.77476e+06
733397
958160
1.1672e+06
1.36317e+06
1.54752e+06
1.72049e+06
1.88173e+06
2.03084e+06
2.16751e+06
2.29146e+06
2.40235e+06
2.49989e+06
2.58387e+06
2.65422e+06
2.71107e+06
2.75494e+06
2.78723e+06
2.81071e+06
2.84289e+06
2.88237e+06
733813
958677
1.16852e+06
1.36655e+06
1.55432e+06
1.73205e+06
1.89934e+06
2.05568e+06
2.20057e+06
2.3335e+06
2.45388e+06
2.56114e+06
2.65477e+06
2.73438e+06
2.79974e+06
2.85097e+06
2.88889e+06
2.91537e+06
2.94703e+06
2.97817e+06
734010
958805
1.16862e+06
1.367e+06
1.55566e+06
1.7349e+06
1.90436e+06
2.06356e+06
2.21203e+06
2.34923e+06
2.4745e+06
2.58719e+06
2.68667e+06
2.77243e+06
2.84408e+06
2.90153e+06
2.94536e+06
2.97697e+06
3.0127e+06
3.04418e+06
734127
958887
1.16859e+06
1.3669e+06
1.55564e+06
1.73514e+06
1.90505e+06
2.06496e+06
2.21444e+06
2.35296e+06
2.47992e+06
2.59465e+06
2.69654e+06
2.78504e+06
2.85976e+06
2.92056e+06
2.96795e+06
3.00319e+06
3.04262e+06
3.07659e+06
734194
958946
1.16858e+06
1.36682e+06
1.55554e+06
1.73506e+06
1.90509e+06
2.0652e+06
2.21497e+06
2.35394e+06
2.48149e+06
2.59698e+06
2.69982e+06
2.78949e+06
2.86558e+06
2.92797e+06
2.97719e+06
3.01446e+06
3.05624e+06
3.09228e+06
734224
958977
1.16858e+06
1.36679e+06
1.55548e+06
1.735e+06
1.90503e+06
2.06517e+06
2.215e+06
2.35406e+06
2.48175e+06
2.59745e+06
2.70056e+06
2.79057e+06
2.86711e+06
2.93005e+06
2.97993e+06
3.01799e+06
3.06077e+06
3.09782e+06
734224
958977
1.16858e+06
1.36679e+06
1.55548e+06
1.735e+06
1.90503e+06
2.06517e+06
2.215e+06
2.35406e+06
2.48175e+06
2.59745e+06
2.70056e+06
2.79058e+06
2.86711e+06
2.93006e+06
2.97994e+06
3.018e+06
3.06078e+06
3.09784e+06
734194
958947
1.16858e+06
1.36683e+06
1.55554e+06
1.73507e+06
1.9051e+06
2.0652e+06
2.21498e+06
2.35395e+06
2.4815e+06
2.597e+06
2.69984e+06
2.7895e+06
2.86559e+06
2.92799e+06
2.97721e+06
3.01449e+06
3.05627e+06
3.09231e+06
734128
958888
1.16859e+06
1.36691e+06
1.55565e+06
1.73514e+06
1.90506e+06
2.06497e+06
2.21445e+06
2.35298e+06
2.47994e+06
2.59467e+06
2.69656e+06
2.78507e+06
2.85979e+06
2.92059e+06
2.96799e+06
3.00323e+06
3.04267e+06
3.07665e+06
734011
958807
1.16863e+06
1.36701e+06
1.55567e+06
1.73491e+06
1.90437e+06
2.06358e+06
2.21205e+06
2.34925e+06
2.47453e+06
2.58722e+06
2.68671e+06
2.77247e+06
2.84413e+06
2.90158e+06
2.94542e+06
2.97704e+06
3.01277e+06
3.04425e+06
733814
958680
1.16852e+06
1.36655e+06
1.55433e+06
1.73206e+06
1.89936e+06
2.0557e+06
2.2006e+06
2.33353e+06
2.45392e+06
2.56118e+06
2.65481e+06
2.73442e+06
2.7998e+06
2.85103e+06
2.88896e+06
2.91544e+06
2.94711e+06
2.97826e+06
733399
958163
1.16721e+06
1.36318e+06
1.54753e+06
1.7205e+06
1.88174e+06
2.03086e+06
2.16754e+06
2.29149e+06
2.40239e+06
2.49993e+06
2.58392e+06
2.65427e+06
2.71113e+06
2.755e+06
2.7873e+06
2.81078e+06
2.84297e+06
2.88246e+06
731575
953326
1.15606e+06
1.34233e+06
1.51438e+06
1.67328e+06
1.81943e+06
1.95307e+06
2.07449e+06
2.18391e+06
2.28144e+06
2.36716e+06
2.4412e+06
2.50382e+06
2.55554e+06
2.5974e+06
2.63157e+06
2.66219e+06
2.70843e+06
2.77482e+06
726365
937627
1.12607e+06
1.29667e+06
1.4534e+06
1.5983e+06
1.7323e+06
1.85601e+06
1.96987e+06
2.07424e+06
2.16928e+06
2.25517e+06
2.33213e+06
2.40063e+06
2.46149e+06
2.5163e+06
2.56818e+06
2.62303e+06
2.70254e+06
2.81692e+06
774240
1.01355e+06
1.22388e+06
1.41553e+06
1.59369e+06
1.76027e+06
1.91603e+06
2.06153e+06
2.19728e+06
2.32405e+06
2.44205e+06
2.55158e+06
2.65315e+06
2.74767e+06
2.83659e+06
2.92241e+06
3.00957e+06
3.10613e+06
3.23691e+06
3.41461e+06
3.26361e+06
3.48549e+06
3.70782e+06
3.93034e+06
4.15152e+06
4.37043e+06
4.58679e+06
4.80072e+06
5.01246e+06
5.22288e+06
5.43218e+06
5.6408e+06
5.84948e+06
6.05931e+06
6.27168e+06
6.48829e+06
6.71116e+06
6.94233e+06
7.18727e+06
7.42649e+06
3.27836e+06
3.53552e+06
3.80284e+06
4.07555e+06
4.34993e+06
4.62336e+06
4.89424e+06
5.16173e+06
5.42538e+06
5.68502e+06
5.94188e+06
6.19596e+06
6.44767e+06
6.69782e+06
6.94758e+06
7.19855e+06
7.45274e+06
7.7124e+06
7.982e+06
8.25254e+06
730172
945102
1.13784e+06
1.31344e+06
1.47601e+06
1.62775e+06
1.76979e+06
1.90293e+06
2.02792e+06
2.14539e+06
2.25653e+06
2.36187e+06
2.46223e+06
2.5589e+06
2.65385e+06
2.75035e+06
2.85373e+06
2.97269e+06
3.12457e+06
3.31607e+06
659664
718224
789439
867657
949567
1.03286e+06
1.11576e+06
1.19691e+06
1.27538e+06
1.3506e+06
1.4223e+06
1.49029e+06
1.55467e+06
1.61596e+06
1.67536e+06
1.7351e+06
1.79922e+06
1.87477e+06
1.97677e+06
2.11401e+06
668778
728975
794539
861878
929365
996061
1.06115e+06
1.1239e+06
1.18371e+06
1.24008e+06
1.29261e+06
1.34101e+06
1.38521e+06
1.42543e+06
1.46237e+06
1.49758e+06
1.53405e+06
1.57723e+06
1.63982e+06
1.72957e+06
672518
738934
811977
887010
961588
1.03425e+06
1.1039e+06
1.16964e+06
1.23082e+06
1.28689e+06
1.33742e+06
1.3821e+06
1.42077e+06
1.4535e+06
1.48074e+06
1.5036e+06
1.52436e+06
1.54725e+06
1.58329e+06
1.63816e+06
673170
740724
816261
895228
974845
1.05326e+06
1.129e+06
1.20089e+06
1.26797e+06
1.32946e+06
1.38472e+06
1.43322e+06
1.47459e+06
1.50869e+06
1.53569e+06
1.55633e+06
1.57232e+06
1.58703e+06
1.61035e+06
1.64594e+06
673311
740872
816751
896688
977974
1.05873e+06
1.13742e+06
1.2128e+06
1.2838e+06
1.34951e+06
1.40914e+06
1.46199e+06
1.50754e+06
1.54545e+06
1.57567e+06
1.59867e+06
1.6158e+06
1.62983e+06
1.65002e+06
1.67844e+06
673379
740868
816678
896705
978328
1.0597e+06
1.13932e+06
1.21594e+06
1.28851e+06
1.35611e+06
1.41791e+06
1.47318e+06
1.52131e+06
1.56188e+06
1.59476e+06
1.62027e+06
1.63958e+06
1.65517e+06
1.676e+06
1.7032e+06
673419
740869
816598
896573
978220
1.05971e+06
1.13956e+06
1.21655e+06
1.28964e+06
1.35793e+06
1.42059e+06
1.4769e+06
1.52625e+06
1.56819e+06
1.60256e+06
1.62965e+06
1.65056e+06
1.66765e+06
1.68978e+06
1.71761e+06
673438
740873
816563
896500
978129
1.05963e+06
1.13953e+06
1.21659e+06
1.28981e+06
1.35829e+06
1.42122e+06
1.47787e+06
1.52763e+06
1.57008e+06
1.60503e+06
1.63278e+06
1.6544e+06
1.67223e+06
1.69511e+06
1.72351e+06
673438
740873
816563
896500
978129
1.05963e+06
1.13953e+06
1.21659e+06
1.28981e+06
1.35829e+06
1.42122e+06
1.47787e+06
1.52763e+06
1.57008e+06
1.60503e+06
1.63278e+06
1.65441e+06
1.67223e+06
1.69512e+06
1.72352e+06
673419
740869
816599
896574
978221
1.05971e+06
1.13956e+06
1.21655e+06
1.28964e+06
1.35793e+06
1.4206e+06
1.47691e+06
1.52625e+06
1.5682e+06
1.60257e+06
1.62966e+06
1.65058e+06
1.66766e+06
1.6898e+06
1.71763e+06
673379
740868
816678
896707
978331
1.0597e+06
1.13932e+06
1.21594e+06
1.28851e+06
1.35612e+06
1.41792e+06
1.47319e+06
1.52132e+06
1.56189e+06
1.59478e+06
1.62029e+06
1.6396e+06
1.65519e+06
1.67602e+06
1.70323e+06
673311
740873
816753
896691
977978
1.05873e+06
1.13743e+06
1.2128e+06
1.2838e+06
1.34952e+06
1.40915e+06
1.46201e+06
1.50756e+06
1.54547e+06
1.57569e+06
1.59869e+06
1.61583e+06
1.62986e+06
1.65005e+06
1.67847e+06
673171
740725
816263
895231
974850
1.05326e+06
1.12901e+06
1.20089e+06
1.26798e+06
1.32947e+06
1.38474e+06
1.43324e+06
1.47461e+06
1.50871e+06
1.53571e+06
1.55635e+06
1.57235e+06
1.58706e+06
1.61038e+06
1.64597e+06
672519
738936
811980
887013
961592
1.03426e+06
1.1039e+06
1.16965e+06
1.23082e+06
1.2869e+06
1.33743e+06
1.38211e+06
1.42078e+06
1.45351e+06
1.48075e+06
1.50362e+06
1.52438e+06
1.54727e+06
1.5833e+06
1.63817e+06
668779
728976
794541
861880
929366
996059
1.06114e+06
1.12389e+06
1.1837e+06
1.24007e+06
1.29259e+06
1.34099e+06
1.38519e+06
1.42541e+06
1.46235e+06
1.49756e+06
1.53403e+06
1.57721e+06
1.6398e+06
1.72955e+06
659664
718222
789444
867674
949597
1.03291e+06
1.11581e+06
1.19697e+06
1.27545e+06
1.35067e+06
1.42237e+06
1.49036e+06
1.55474e+06
1.61604e+06
1.67544e+06
1.73517e+06
1.79929e+06
1.87484e+06
1.97684e+06
2.11407e+06
730171
945061
1.13777e+06
1.31333e+06
1.47589e+06
1.62762e+06
1.76965e+06
1.90278e+06
2.02776e+06
2.14522e+06
2.25635e+06
2.36169e+06
2.46206e+06
2.55873e+06
2.65369e+06
2.75019e+06
2.85358e+06
2.97256e+06
3.12447e+06
3.31602e+06
3.27839e+06
3.53523e+06
3.8023e+06
4.07485e+06
4.34912e+06
4.62246e+06
4.89328e+06
5.16071e+06
5.42434e+06
5.68396e+06
5.94083e+06
6.19494e+06
6.44669e+06
6.69689e+06
6.9467e+06
7.19776e+06
7.45207e+06
7.71186e+06
7.98161e+06
8.2523e+06
3.28131e+06
3.54786e+06
3.83224e+06
4.12881e+06
4.43261e+06
4.73971e+06
5.04718e+06
5.3529e+06
5.65529e+06
5.95306e+06
6.24535e+06
6.53176e+06
6.81237e+06
7.08775e+06
7.35887e+06
7.62904e+06
7.90025e+06
8.17462e+06
8.45568e+06
8.74047e+06
735472
961148
1.16862e+06
1.36068e+06
1.53988e+06
1.70765e+06
1.86475e+06
2.01188e+06
2.14984e+06
2.2794e+06
2.4014e+06
2.51674e+06
2.62665e+06
2.73272e+06
2.83681e+06
2.94373e+06
3.05876e+06
3.18966e+06
3.3488e+06
3.54193e+06
670888
732825
800465
870426
941292
1.01232e+06
1.08286e+06
1.15238e+06
1.22049e+06
1.28691e+06
1.35151e+06
1.41432e+06
1.47561e+06
1.5362e+06
1.5979e+06
1.66314e+06
1.73595e+06
1.8228e+06
1.93452e+06
2.07861e+06
729569
746059
769348
797010
827660
860634
895378
931327
967935
1.00471e+06
1.04125e+06
1.07732e+06
1.11294e+06
1.1484e+06
1.18457e+06
1.22312e+06
1.26708e+06
1.32154e+06
1.39559e+06
1.4965e+06
739961
763024
788027
813763
839762
865985
892355
918661
944607
969860
994093
1.01705e+06
1.03861e+06
1.05892e+06
1.07854e+06
1.09868e+06
1.12162e+06
1.15139e+06
1.19557e+06
1.26047e+06
742661
770049
800038
830735
861194
891066
920090
947956
974319
998815
1.02108e+06
1.04081e+06
1.05782e+06
1.07212e+06
1.08405e+06
1.09449e+06
1.10525e+06
1.11952e+06
1.14382e+06
1.18328e+06
743111
771225
802682
835637
868970
902111
934591
965916
995573
1.02304e+06
1.04781e+06
1.06943e+06
1.08755e+06
1.10201e+06
1.11296e+06
1.12101e+06
1.12757e+06
1.13524e+06
1.14984e+06
1.17543e+06
743209
771332
802971
836441
870667
905066
939136
972339
1.0041e+06
1.03383e+06
1.06092e+06
1.08482e+06
1.10507e+06
1.12137e+06
1.13372e+06
1.14254e+06
1.14896e+06
1.15523e+06
1.1667e+06
1.18665e+06
743253
771336
802930
836439
870839
905569
940141
974026
1.00666e+06
1.03743e+06
1.06572e+06
1.09094e+06
1.11259e+06
1.13032e+06
1.14403e+06
1.15405e+06
1.16139e+06
1.16806e+06
1.1792e+06
1.19761e+06
743274
771337
802892
836376
870790
905582
940271
974340
1.00723e+06
1.03834e+06
1.06707e+06
1.0928e+06
1.11503e+06
1.1334e+06
1.14779e+06
1.15848e+06
1.16642e+06
1.17357e+06
1.18496e+06
1.20316e+06
743274
771337
802892
836376
870790
905582
940271
974340
1.00723e+06
1.03834e+06
1.06707e+06
1.0928e+06
1.11503e+06
1.1334e+06
1.14779e+06
1.15848e+06
1.16643e+06
1.17358e+06
1.18496e+06
1.20316e+06
743253
771336
802930
836440
870840
905571
940142
974028
1.00666e+06
1.03743e+06
1.06572e+06
1.09095e+06
1.11259e+06
1.13032e+06
1.14404e+06
1.15406e+06
1.16139e+06
1.16807e+06
1.17921e+06
1.19762e+06
743209
771333
802972
836442
870669
905069
939139
972342
1.00411e+06
1.03383e+06
1.06093e+06
1.08483e+06
1.10507e+06
1.12138e+06
1.13373e+06
1.14255e+06
1.14897e+06
1.15524e+06
1.16671e+06
1.18666e+06
743111
771226
802684
835639
868973
902114
934595
965920
995578
1.02305e+06
1.04782e+06
1.06943e+06
1.08755e+06
1.10202e+06
1.11297e+06
1.12102e+06
1.12758e+06
1.13526e+06
1.14986e+06
1.17544e+06
742662
770050
800040
830738
861197
891069
920093
947959
974323
998818
1.02109e+06
1.04082e+06
1.05783e+06
1.07212e+06
1.08405e+06
1.0945e+06
1.10525e+06
1.11952e+06
1.14382e+06
1.18328e+06
739962
763025
788029
813767
839765
865988
892357
918662
944607
969860
994091
1.01704e+06
1.0386e+06
1.05892e+06
1.07854e+06
1.09867e+06
1.12161e+06
1.15138e+06
1.19555e+06
1.26044e+06
729569
746055
769344
797008
827659
860634
895379
931327
967933
1.00471e+06
1.04124e+06
1.07731e+06
1.11292e+06
1.14838e+06
1.18455e+06
1.2231e+06
1.26705e+06
1.32151e+06
1.39554e+06
1.49645e+06
670886
732817
800463
870437
941321
1.01236e+06
1.08292e+06
1.15246e+06
1.22058e+06
1.28701e+06
1.35162e+06
1.41443e+06
1.47573e+06
1.53632e+06
1.59801e+06
1.66324e+06
1.73604e+06
1.82288e+06
1.9346e+06
2.07868e+06
735471
961105
1.16854e+06
1.36057e+06
1.53976e+06
1.70752e+06
1.86461e+06
2.01173e+06
2.14968e+06
2.27924e+06
2.40123e+06
2.51658e+06
2.6265e+06
2.73258e+06
2.83668e+06
2.9436e+06
3.05864e+06
3.18957e+06
3.34874e+06
3.54191e+06
3.28134e+06
3.54756e+06
3.8317e+06
4.12809e+06
4.43177e+06
4.73877e+06
5.04616e+06
5.35183e+06
5.65418e+06
5.95194e+06
6.24426e+06
6.53071e+06
6.81138e+06
7.08682e+06
7.35804e+06
7.62831e+06
7.89965e+06
8.17418e+06
8.45541e+06
8.74036e+06
3.28157e+06
3.54959e+06
3.83786e+06
4.14095e+06
4.4539e+06
4.77273e+06
5.09435e+06
5.41632e+06
5.73664e+06
6.05361e+06
6.3659e+06
6.6727e+06
6.97369e+06
7.26899e+06
7.55916e+06
7.8469e+06
8.13357e+06
8.42104e+06
8.71212e+06
9.00694e+06
737210
965956
1.17992e+06
1.38198e+06
1.57389e+06
1.75627e+06
1.92921e+06
2.09282e+06
2.24743e+06
2.39347e+06
2.53147e+06
2.66222e+06
2.78686e+06
2.90704e+06
3.02498e+06
3.14464e+06
3.27075e+06
3.41007e+06
3.57204e+06
3.76194e+06
674967
743719
819736
898633
978246
1.0574e+06
1.1353e+06
1.21139e+06
1.28537e+06
1.35713e+06
1.42673e+06
1.49446e+06
1.56091e+06
1.62701e+06
1.69437e+06
1.76592e+06
1.84546e+06
1.93872e+06
2.05392e+06
2.19703e+06
742059
766807
793768
821847
850686
880376
910980
942439
974628
1.00741e+06
1.04068e+06
1.07443e+06
1.10885e+06
1.14455e+06
1.18267e+06
1.225e+06
1.27449e+06
1.33575e+06
1.41571e+06
1.52025e+06
802631
804527
810126
818476
828744
840524
853574
867678
882622
898202
914252
930706
947665
965473
984880
1.00724e+06
1.03486e+06
1.07143e+06
1.12277e+06
1.1942e+06
811610
820198
829269
838622
848015
857391
866739
876009
885110
893917
902300
910177
917581
924744
932215
941043
953055
971253
1.00053e+06
1.04551e+06
813615
825385
838073
851028
863726
875916
887445
898173
907947
916593
923932
929820
934211
937225
939256
941118
944301
951292
966333
993327
813936
826238
839949
854433
869056
883427
897254
910271
922209
932781
941703
948720
953671
956548
957590
957420
957266
959243
967143
984292
813998
826317
840167
855005
870223
885419
900280
914508
927789
939786
950147
958545
964734
968610
970298
970281
969607
970144
975395
988276
814020
826318
840157
855038
870377
885784
900953
915588
929374
941962
952983
962085
968986
973540
975818
976236
975754
976119
980692
992181
814020
826318
840157
855038
870377
885784
900953
915588
929374
941962
952984
962085
968987
973541
975819
976238
975756
976121
980694
992183
813999
826318
840167
855006
870224
885420
900282
914510
927791
939788
950149
958548
964737
968613
970301
970285
969612
970149
975400
988281
813936
826239
839950
854434
869058
883428
897256
910273
922211
932785
941706
948724
953675
956553
957596
957426
957272
959250
967150
984298
813615
825386
838075
851030
863729
875918
887447
898175
907950
916596
923935
929824
934215
937230
939261
941123
944306
951295
966335
993326
811610
820199
829271
838625
848018
857395
866742
876011
885112
893918
902301
910178
917581
924743
932214
941040
953050
971244
1.00052e+06
1.04549e+06
802631
804525
810123
818475
828744
840525
853577
867682
882626
898206
914254
930707
947664
965469
984872
1.00723e+06
1.03484e+06
1.07141e+06
1.12274e+06
1.19415e+06
742057
766798
793757
821836
850677
880371
910978
942439
974629
1.00741e+06
1.04068e+06
1.07442e+06
1.10885e+06
1.14455e+06
1.18266e+06
1.22498e+06
1.27446e+06
1.33571e+06
1.41566e+06
1.52019e+06
674964
743710
819732
898643
978273
1.05745e+06
1.13537e+06
1.21148e+06
1.28547e+06
1.35724e+06
1.42685e+06
1.49459e+06
1.56104e+06
1.62715e+06
1.6945e+06
1.76604e+06
1.84557e+06
1.93882e+06
2.05401e+06
2.1971e+06
737210
965913
1.17984e+06
1.38187e+06
1.57376e+06
1.75614e+06
1.92906e+06
2.09267e+06
2.24727e+06
2.3933e+06
2.5313e+06
2.66206e+06
2.78671e+06
2.90689e+06
3.02485e+06
3.14452e+06
3.27064e+06
3.41e+06
3.572e+06
3.76195e+06
3.28159e+06
3.54929e+06
3.83731e+06
4.14023e+06
4.45306e+06
4.7718e+06
5.09334e+06
5.41526e+06
5.73555e+06
6.05251e+06
6.36483e+06
6.67168e+06
6.97274e+06
7.26812e+06
7.55839e+06
7.84626e+06
8.13307e+06
8.42071e+06
8.71197e+06
9.00697e+06
3.2815e+06
3.54955e+06
3.83848e+06
4.14326e+06
4.45923e+06
4.78267e+06
5.11062e+06
5.4407e+06
5.77077e+06
6.0989e+06
6.42345e+06
6.74323e+06
7.05748e+06
7.3659e+06
7.66856e+06
7.96598e+06
8.25939e+06
8.55258e+06
8.84769e+06
9.14621e+06
737510
966285
1.18099e+06
1.38505e+06
1.58035e+06
1.76749e+06
1.94652e+06
2.1175e+06
2.28062e+06
2.43617e+06
2.58453e+06
2.72628e+06
2.86241e+06
2.99437e+06
3.12425e+06
3.25503e+06
3.39066e+06
3.53796e+06
3.70438e+06
3.89515e+06
675603
745537
824166
907205
992191
1.07762e+06
1.1624e+06
1.24578e+06
1.32729e+06
1.40672e+06
1.48406e+06
1.55958e+06
1.63385e+06
1.7079e+06
1.78331e+06
1.86232e+06
1.9486e+06
2.04736e+06
2.16513e+06
2.30711e+06
745063
774596
807211
841161
875677
910628
946001
981764
1.01788e+06
1.05435e+06
1.09121e+06
1.12864e+06
1.16701e+06
1.207e+06
1.2497e+06
1.29701e+06
1.35179e+06
1.41811e+06
1.50152e+06
1.60697e+06
813560
823563
834166
845283
856781
868727
881238
894405
908285
922920
938367
954747
972331
991637
1.01361e+06
1.03966e+06
1.07204e+06
1.11407e+06
1.17045e+06
1.24571e+06
870815
866834
865253
865533
867001
869268
872148
875549
879416
883711
888425
893624
899499
906438
915142
926758
943100
966933
1.00224e+06
1.05305e+06
878459
880457
882437
884426
886240
887779
889023
889982
890659
891046
891130
890941
890606
890421
890936
893092
898400
909195
928921
961112
880031
884542
889356
894156
898558
902327
905345
907551
908904
909353
908843
907353
904944
901826
898434
895551
894470
897219
906863
926549
880272
885213
890823
896781
902612
907979
912660
916499
919368
921133
921659
920843
918661
915227
910871
906241
902470
901364
905736
918452
880309
885278
891018
897252
903514
909451
914819
919436
923134
925738
927064
926958
925339
922258
917977
913063
908552
906129
908472
918288
880309
885278
891018
897252
903514
909451
914820
919437
923135
925738
927065
926959
925340
922260
917978
913065
908553
906131
908473
918289
880273
885214
890824
896782
902614
907981
912661
916501
919370
921135
921662
920846
918664
915231
910874
906245
902474
901368
905740
918454
880032
884543
889357
894157
898560
902329
905346
907553
908906
909355
908845
907356
904947
901829
898438
895555
894474
897222
906864
926548
878459
880458
882439
884429
886243
887783
889027
889985
890663
891049
891133
890944
890609
890424
890939
893093
898400
909193
928915
961102
870815
866831
865250
865532
867001
869269
872150
875552
879419
883715
888429
893627
899501
906440
915142
926755
943093
966922
1.00223e+06
1.05302e+06
813560
823555
834156
845274
856774
868722
881236
894405
908287
922923
938371
954751
972334
991638
1.0136e+06
1.03966e+06
1.07202e+06
1.11404e+06
1.17041e+06
1.24566e+06
745061
774587
807198
841149
875666
910620
945996
981763
1.01788e+06
1.05435e+06
1.09121e+06
1.12864e+06
1.167e+06
1.20699e+06
1.24969e+06
1.297e+06
1.35177e+06
1.41808e+06
1.50147e+06
1.60691e+06
675600
745528
824161
907215
992218
1.07766e+06
1.16247e+06
1.24586e+06
1.32739e+06
1.40683e+06
1.48418e+06
1.5597e+06
1.63398e+06
1.70804e+06
1.78344e+06
1.86245e+06
1.94872e+06
2.04747e+06
2.16522e+06
2.30718e+06
737510
966242
1.18091e+06
1.38495e+06
1.58023e+06
1.76735e+06
1.94638e+06
2.11735e+06
2.28046e+06
2.43601e+06
2.58436e+06
2.72613e+06
2.86226e+06
2.99423e+06
3.12413e+06
3.25492e+06
3.39058e+06
3.5379e+06
3.70436e+06
3.89517e+06
3.28153e+06
3.54925e+06
3.83793e+06
4.14255e+06
4.4584e+06
4.78174e+06
5.10964e+06
5.43966e+06
5.76971e+06
6.09784e+06
6.42242e+06
6.74226e+06
7.05659e+06
7.36509e+06
7.66787e+06
7.96543e+06
8.259e+06
8.55235e+06
8.84765e+06
9.14635e+06
3.28146e+06
3.54943e+06
3.83846e+06
4.14364e+06
4.4604e+06
4.78511e+06
5.1149e+06
5.44748e+06
5.78077e+06
6.11284e+06
6.44205e+06
6.7671e+06
7.08715e+06
7.40172e+06
7.71072e+06
8.01441e+06
8.31342e+06
8.61015e+06
8.90745e+06
9.20732e+06
737626
966297
1.181e+06
1.38552e+06
1.58191e+06
1.77085e+06
1.95247e+06
2.12686e+06
2.29426e+06
2.45493e+06
2.60922e+06
2.75765e+06
2.9011e+06
3.04092e+06
3.17903e+06
3.3181e+06
3.46181e+06
3.61545e+06
3.78572e+06
3.97809e+06
675705
745633
824625
908703
995483
1.08345e+06
1.17149e+06
1.2588e+06
1.34486e+06
1.42939e+06
1.51231e+06
1.5938e+06
1.67435e+06
1.7549e+06
1.83689e+06
1.92245e+06
2.01456e+06
2.11761e+06
2.23721e+06
2.37826e+06
745510
775808
810009
846443
884191
922938
962520
1.00279e+06
1.04364e+06
1.08501e+06
1.1269e+06
1.16948e+06
1.2131e+06
1.25845e+06
1.30665e+06
1.35935e+06
1.419e+06
1.48928e+06
1.57476e+06
1.6799e+06
815857
829446
844246
859751
875589
891691
908113
924948
942298
960279
979035
998789
1.01991e+06
1.043e+06
1.06896e+06
1.09922e+06
1.13589e+06
1.18192e+06
1.24123e+06
1.31783e+06
880298
883572
886890
890388
893971
897630
901443
905524
909996
914979
920603
927056
934639
943846
955470
970677
991199
1.01952e+06
1.05901e+06
1.11325e+06
933530
926418
921106
917222
914226
911761
909644
907796
906200
904865
903831
903201
903188
904178
906807
912058
921410
937010
961801
999008
940151
938327
936345
934301
932059
929518
926635
923411
919871
916040
911950
907676
903383
899385
896223
894751
896278
902722
916746
941332
941433
941687
942033
942275
942122
941368
939894
937651
934624
930807
926203
920850
914872
908531
902301
896955
893692
894291
901257
917431
941617
942239
943232
944364
945263
945633
945274
944062
941917
938776
934592
929356
923149
916190
908906
902019
896669
894565
898137
910162
941617
942239
943232
944365
945263
945633
945275
944063
941918
938777
934593
929357
923150
916192
908907
902020
896670
894566
898137
910163
941433
941687
942034
942276
942124
941369
939895
937652
934625
930809
926205
920852
914874
908534
902304
896958
893694
894293
901258
917430
940152
938328
936346
934303
932062
929521
926638
923414
919874
916043
911953
907679
903386
899389
896226
894755
896280
902722
916744
941327
933530
926416
921103
917221
914226
911763
909647
907800
906204
904870
903836
903206
903193
904183
906811
912061
921410
937008
961794
998996
880297
883566
886881
890380
893963
897625
901440
905523
909997
914981
920607
927061
934644
943851
955473
970677
991194
1.01951e+06
1.05899e+06
1.11322e+06
815856
829438
844235
859740
875579
891683
908108
924946
942299
960282
979039
998793
1.01991e+06
1.043e+06
1.06896e+06
1.09921e+06
1.13588e+06
1.1819e+06
1.2412e+06
1.31779e+06
745509
775798
809997
846430
884179
922929
962515
1.00279e+06
1.04364e+06
1.08501e+06
1.1269e+06
1.16947e+06
1.2131e+06
1.25845e+06
1.30664e+06
1.35934e+06
1.41898e+06
1.48925e+06
1.57471e+06
1.67984e+06
675703
745624
824621
908713
995510
1.0835e+06
1.17155e+06
1.25888e+06
1.34496e+06
1.4295e+06
1.51243e+06
1.59392e+06
1.67448e+06
1.75503e+06
1.83702e+06
1.92257e+06
2.01468e+06
2.11772e+06
2.2373e+06
2.37832e+06
737626
966255
1.18092e+06
1.38541e+06
1.58178e+06
1.77072e+06
1.95233e+06
2.12672e+06
2.29411e+06
2.45477e+06
2.60906e+06
2.7575e+06
2.90096e+06
3.04079e+06
3.17891e+06
3.318e+06
3.46174e+06
3.6154e+06
3.78571e+06
3.97811e+06
3.28148e+06
3.54913e+06
3.83791e+06
4.14293e+06
4.45957e+06
4.78419e+06
5.11394e+06
5.44647e+06
5.77974e+06
6.11182e+06
6.44106e+06
6.76618e+06
7.08631e+06
7.40098e+06
7.71011e+06
8.01394e+06
8.31312e+06
8.61002e+06
8.90751e+06
9.20755e+06
3.28143e+06
3.54937e+06
3.83844e+06
4.14383e+06
4.46098e+06
4.78631e+06
5.11704e+06
5.4509e+06
5.78587e+06
6.12006e+06
6.45177e+06
6.77971e+06
7.10294e+06
7.4209e+06
7.73333e+06
8.04031e+06
8.34224e+06
8.6399e+06
8.93614e+06
9.23394e+06
737687
966319
1.18098e+06
1.3856e+06
1.58235e+06
1.77199e+06
1.95468e+06
2.1306e+06
2.30005e+06
2.46336e+06
2.62091e+06
2.77328e+06
2.92133e+06
3.0664e+06
3.21032e+06
3.35558e+06
3.50548e+06
3.66436e+06
3.83818e+06
4.03281e+06
675746
745597
824547
908786
996026
1.0848e+06
1.17403e+06
1.26295e+06
1.35109e+06
1.43816e+06
1.5241e+06
1.60906e+06
1.69352e+06
1.77833e+06
1.86483e+06
1.95495e+06
2.05135e+06
2.15762e+06
2.27847e+06
2.41895e+06
745580
775872
810271
847280
886030
926208
967639
1.01017e+06
1.05366e+06
1.09805e+06
1.1433e+06
1.18954e+06
1.2371e+06
1.28658e+06
1.33902e+06
1.39592e+06
1.45946e+06
1.53254e+06
1.61923e+06
1.72376e+06
816185
830342
846267
863495
881561
900281
919615
939583
960243
981679
1.00402e+06
1.02747e+06
1.0524e+06
1.0794e+06
1.10936e+06
1.14359e+06
1.18391e+06