/*--------------------------------*- C++ -*----------------------------------*\
  =========                 |
  \\      /  F ield         | OpenFOAM: The Open Source CFD Toolbox
   \\    /   O peration     | Website:  https://openfoam.org
    \\  /    A nd           | Version:  10
     \\/     M anipulation  |
\*---------------------------------------------------------------------------*/
FoamFile
{
    format      ascii;
    class       volScalarField;
    location    "100";
    object      k;
}
// * * * * * * * * * * * * * * * * * * * * * * * * * * * * * * * * * * * * * //

dimensions      [0 2 -2 0 0 0 0];

internalField   nonuniform List<scalar> 
112000
(
459.86
470.275
481.168
492.417
503.823
515.3
526.846
538.489
550.257
562.178
574.287
586.635
599.288
612.328
625.848
639.957
654.778
670.419
687.409
701.726
470.075
491.482
512.648
533.579
554.165
574.36
594.177
613.653
632.83
651.746
670.442
688.976
707.427
725.891
744.492
763.383
782.78
802.984
825.237
845.875
471.388
495.891
520.895
545.98
570.844
595.302
619.26
642.693
665.606
688.017
709.957
731.476
752.648
773.566
794.353
815.16
836.198
857.756
881.184
902.446
471.659
497.001
523.498
550.613
577.912
605.084
631.919
658.289
684.114
709.343
733.955
757.964
781.413
804.377
826.958
849.287
871.538
893.934
917.757
938.318
471.68
497.144
523.963
551.612
579.649
607.752
635.695
663.324
690.525
717.22
743.359
768.932
793.962
818.503
842.636
866.469
890.151
913.849
938.778
959.751
471.675
497.13
523.99
551.758
580.016
608.46
636.878
665.116
693.056
720.606
747.702
774.315
800.449
826.14
851.451
876.475
901.345
926.204
952.251
973.957
471.671
497.114
523.965
551.742
580.028
608.531
637.043
665.42
693.55
721.347
748.75
775.734
802.305
828.499
854.382
880.05
905.638
931.293
958.228
980.775
471.669
497.104
523.945
551.713
579.997
608.505
637.034
665.446
693.634
721.516
749.035
776.169
802.927
829.348
855.501
881.485
907.441
933.521
960.962
984.029
471.669
497.099
523.934
551.696
579.974
608.476
637.002
665.412
693.603
721.495
749.032
776.196
802.997
829.48
855.717
881.81
907.907
934.168
961.846
985.194
471.669
497.097
523.929
551.688
579.963
608.461
636.984
665.391
693.58
721.471
749.011
776.181
802.994
829.495
855.756
881.884
908.028
934.352
962.118
985.574
471.669
497.097
523.929
551.688
579.963
608.462
636.984
665.391
693.58
721.471
749.012
776.182
802.995
829.495
855.757
881.885
908.029
934.353
962.12
985.576
471.669
497.099
523.934
551.697
579.975
608.477
637.003
665.413
693.605
721.496
749.034
776.197
802.999
829.482
855.719
881.813
907.91
934.171
961.85
985.199
471.669
497.104
523.945
551.714
579.998
608.506
637.036
665.448
693.636
721.518
749.038
776.171
802.929
829.351
855.504
881.489
907.446
933.527
960.969
984.037
471.671
497.114
523.966
551.743
580.03
608.532
637.045
665.421
693.552
721.349
748.753
775.738
802.309
828.503
854.387
880.056
905.645
931.301
958.237
980.786
471.675
497.131
523.991
551.76
580.017
608.462
636.88
665.118
693.059
720.609
747.705
774.319
800.455
826.147
851.458
876.483
901.354
926.214
952.263
973.972
471.68
497.144
523.963
551.612
579.649
607.753
635.697
663.326
690.528
717.223
743.363
768.938
793.969
818.512
842.647
866.481
890.164
913.863
938.795
959.771
471.659
497.001
523.498
550.612
577.912
605.084
631.92
658.292
684.118
709.348
733.961
757.971
781.422
804.389
826.972
849.302
871.555
893.953
917.778
938.342
471.388
495.89
520.893
545.979
570.844
595.303
619.263
642.697
665.611
688.024
709.967
731.488
752.662
773.583
794.372
815.182
836.223
857.784
881.216
902.48
470.075
491.48
512.647
533.582
554.172
574.372
594.193
613.673
632.854
651.774
670.475
689.013
707.467
725.935
744.538
763.432
782.834
803.042
825.3
845.942
459.86
470.269
481.159
492.405
503.809
515.285
526.829
538.47
550.236
562.155
574.264
586.611
599.263
612.301
625.819
639.927
654.749
670.391
687.383
701.701
469.954
491.055
511.743
532.032
551.819
571.056
589.757
607.959
625.71
643.103
660.171
676.965
693.559
710.045
726.537
743.166
760.082
777.43
795.601
813.15
705.789
766.305
809.759
843.884
872.137
895.996
916.257
933.496
948.161
960.553
970.961
979.665
986.982
993.297
999.121
1005.2
1012.76
1023.87
1044.39
1077.57
718.437
797.262
855.484
900.257
935.994
965.105
988.992
1008.62
1024.7
1037.78
1048.27
1056.52
1062.9
1067.84
1071.88
1075.82
1081
1089.73
1108.97
1142.66
723.603
811.015
879.125
933.514
977.812
1014.18
1043.97
1068.2
1087.69
1103.08
1114.88
1123.53
1129.46
1133.09
1134.99
1135.88
1136.98
1140.32
1152.71
1177.21
724.852
814.241
885.957
945.267
995.203
1037.45
1073.06
1102.78
1127.27
1147.06
1162.57
1174.21
1182.35
1187.4
1189.84
1190.32
1189.85
1190.12
1197.46
1213.42
725.119
814.624
886.902
947.413
999.135
1043.66
1081.92
1114.59
1142.19
1165.16
1183.82
1198.46
1209.39
1216.92
1221.45
1223.49
1223.91
1224.12
1230.1
1242.16
725.236
814.701
886.996
947.74
999.956
1045.23
1084.5
1118.42
1147.5
1172.12
1192.57
1209.11
1221.98
1231.44
1237.84
1241.64
1243.6
1244.97
1251.59
1262.95
725.304
814.74
886.977
947.706
999.989
1045.42
1084.95
1119.23
1148.78
1174
1195.17
1212.53
1226.33
1236.81
1244.29
1249.21
1252.32
1254.8
1262.44
1274.33
725.343
814.768
886.966
947.662
999.939
1045.4
1084.99
1119.37
1149.07
1174.49
1195.93
1213.62
1227.8
1238.73
1246.73
1252.25
1256
1259.18
1267.59
1280.12
725.361
814.783
886.964
947.642
999.908
1045.37
1084.96
1119.36
1149.1
1174.57
1196.07
1213.86
1228.16
1239.25
1247.43
1253.16
1257.18
1260.66
1269.42
1282.31
725.361
814.783
886.964
947.642
999.908
1045.37
1084.96
1119.37
1149.1
1174.57
1196.07
1213.86
1228.16
1239.25
1247.43
1253.16
1257.18
1260.66
1269.43
1282.31
725.343
814.769
886.967
947.663
999.94
1045.4
1084.99
1119.37
1149.08
1174.5
1195.93
1213.62
1227.8
1238.74
1246.74
1252.25
1256.01
1259.19
1267.6
1280.13
725.305
814.741
886.978
947.708
999.991
1045.43
1084.95
1119.23
1148.79
1174
1195.17
1212.54
1226.33
1236.81
1244.29
1249.22
1252.32
1254.8
1262.45
1274.34
725.237
814.702
886.998
947.742
999.959
1045.24
1084.51
1118.43
1147.5
1172.12
1192.58
1209.12
1221.98
1231.45
1237.85
1241.65
1243.61
1244.99
1251.61
1262.96
725.119
814.625
886.904
947.416
999.139
1043.66
1081.92
1114.59
1142.2
1165.17
1183.83
1198.47
1209.4
1216.94
1221.46
1223.5
1223.93
1224.14
1230.12
1242.18
724.853
814.242
885.959
945.271
995.208
1037.46
1073.06
1102.79
1127.28
1147.07
1162.59
1174.22
1182.36
1187.42
1189.86
1190.33
1189.87
1190.14
1197.48
1213.44
723.605
811.016
879.126
933.516
977.814
1014.18
1043.97
1068.21
1087.7
1103.09
1114.89
1123.54
1129.47
1133.11
1135
1135.9
1137
1140.35
1152.74
1177.24
718.44
797.263
855.486
900.26
935.999
965.11
988.998
1008.62
1024.71
1037.78
1048.27
1056.53
1062.92
1067.85
1071.89
1075.84
1081.03
1089.76
1109
1142.7
705.792
766.29
809.735
843.86
872.116
895.98
916.246
933.49
948.16
960.557
970.972
979.684
987.008
993.329
999.158
1005.24
1012.81
1023.93
1044.45
1077.64
469.956
491.032
511.703
531.982
551.762
570.996
589.694
607.894
625.644
643.036
660.105
676.9
693.495
709.983
726.477
743.109
760.031
777.385
795.563
813.119
471.371
495.715
520.401
544.997
569.196
592.81
615.75
637.99
659.539
680.422
700.769
720.609
739.999
759.02
777.776
796.398
815.039
833.864
853.187
872.36
720.634
801.045
860.799
907.109
944.434
975.228
1000.93
1022.54
1040.81
1056.33
1069.44
1080.58
1090.23
1098.91
1107.34
1116.47
1127.74
1143.41
1167.75
1202.29
734.357
768.337
805.73
842.83
878.038
910.6
940.149
966.585
989.993
1010.56
1028.53
1044.19
1057.95
1070.35
1082.14
1094.47
1109.19
1129.23
1160.42
1205.7
744.292
784.203
823.73
860.636
894.33
924.758
951.96
976.03
997.11
1015.37
1031.01
1044.24
1055.38
1064.88
1073.39
1081.97
1092.37
1107.49
1133.48
1173.83
747.358
792.142
837.213
879.552
918.054
952.415
982.598
1008.7
1030.93
1049.49
1064.65
1076.65
1085.83
1092.58
1097.52
1101.54
1106.18
1114
1130.8
1159.74
747.907
793.66
840.648
885.777
927.609
965.527
999.25
1028.7
1053.93
1075.07
1092.29
1105.79
1115.81
1122.71
1126.97
1129.36
1131.17
1134.55
1144.86
1164.5
748.023
793.824
841.136
887.031
930.072
969.57
1005.17
1036.7
1064.15
1087.54
1106.97
1122.54
1134.44
1142.91
1148.34
1151.38
1153.13
1155.45
1163.33
1178.44
748.075
793.83
841.117
887.119
930.444
970.413
1006.67
1039.04
1067.48
1092.02
1112.71
1129.61
1142.86
1152.67
1159.38
1163.54
1166.15
1168.91
1176.63
1190.49
748.104
793.831
841.065
887.044
930.407
970.485
1006.92
1039.56
1068.37
1093.37
1114.6
1132.13
1146.09
1156.68
1164.19
1169.17
1172.57
1176.02
1184.24
1198.15
748.118
793.833
841.04
886.996
930.354
970.448
1006.93
1039.63
1068.54
1093.68
1115.08
1132.84
1147.07
1157.96
1165.81
1171.17
1174.96
1178.8
1187.38
1201.52
748.118
793.833
841.04
886.997
930.354
970.448
1006.93
1039.63
1068.54
1093.68
1115.08
1132.84
1147.07
1157.96
1165.82
1171.17
1174.96
1178.8
1187.38
1201.52
748.104
793.831
841.066
887.045
930.408
970.486
1006.92
1039.57
1068.37
1093.37
1114.6
1132.13
1146.1
1156.68
1164.19
1169.17
1172.57
1176.02
1184.24
1198.16
748.075
793.83
841.117
887.12
930.445
970.415
1006.67
1039.04
1067.49
1092.03
1112.71
1129.61
1142.86
1152.68
1159.38
1163.54
1166.16
1168.92
1176.64
1190.5
748.024
793.825
841.137
887.033
930.074
969.572
1005.17
1036.71
1064.15
1087.55
1106.98
1122.55
1134.44
1142.91
1148.35
1151.39
1153.14
1155.46
1163.34
1178.46
747.908
793.661
840.65
885.778
927.612
965.53
999.253
1028.7
1053.94
1075.08
1092.3
1105.79
1115.82
1122.72
1126.98
1129.37
1131.18
1134.56
1144.87
1164.52
747.358
792.142
837.215
879.555
918.056
952.417
982.6
1008.71
1030.93
1049.5
1064.65
1076.66
1085.83
1092.59
1097.53
1101.55
1106.2
1114.01
1130.82
1159.75
744.293
784.204
823.731
860.638
894.332
924.759
951.96
976.029
997.109
1015.37
1031
1044.24
1055.39
1064.88
1073.4
1081.98
1092.38
1107.5
1133.5
1173.84
734.357
768.334
805.729
842.834
878.047
910.613
940.165
966.602
990.009
1010.57
1028.54
1044.21
1057.97
1070.37
1082.16
1094.5
1109.21
1129.26
1160.45
1205.73
720.635
801.023
860.767
907.079
944.413
975.215
1000.92
1022.54
1040.82
1056.34
1069.46
1080.61
1090.26
1098.96
1107.39
1116.52
1127.8
1143.47
1167.83
1202.38
471.373
495.69
520.357
544.941
569.132
592.741
615.677
637.916
659.464
680.346
700.695
720.538
739.931
758.956
777.716
796.344
814.994
833.827
853.16
872.342
471.653
496.866
523.078
549.733
576.383
602.712
628.509
653.646
678.041
701.642
724.428
746.413
767.644
788.197
808.174
827.841
847.35
866.86
886.621
906.422
725.876
815.045
884.922
941.186
987.564
1026.3
1058.84
1086.28
1109.52
1129.29
1146.21
1160.83
1173.73
1185.55
1197.06
1209.1
1223.08
1241
1265.86
1298.92
745.809
786.823
827.515
865.751
901.023
933.337
962.777
989.478
1013.62
1035.43
1055.14
1073.07
1089.59
1105.29
1120.99
1137.85
1157.68
1183.15
1218.49
1266.14
790.71
803.73
821.408
841.411
862.373
883.609
904.636
925.063
944.593
963.024
980.244
996.265
1011.25
1025.55
1039.83
1055.17
1073.36
1097.23
1131.47
1179.34
798.979
816.974
836.031
855.112
873.744
891.794
909.147
925.641
941.104
955.384
968.366
980.011
990.398
999.781
1008.68
1018.02
1029.4
1045.41
1070.65
1108.6
801.112
822.389
845.035
867.511
889.045
909.348
928.238
945.547
961.124
974.839
986.595
996.352
1004.16
1010.22
1014.95
1019.12
1024.06
1032.04
1047.29
1073.04
801.488
823.396
847.218
871.399
895.003
917.558
938.726
958.212
975.759
991.15
1004.21
1014.82
1022.96
1028.74
1032.47
1034.75
1036.7
1040.25
1049.23
1066.39
801.569
823.514
847.523
872.148
896.47
919.988
942.324
963.134
982.111
998.975
1013.49
1025.46
1034.81
1041.54
1045.89
1048.33
1049.81
1052.01
1058.49
1071.52
801.602
823.523
847.515
872.196
896.683
920.485
943.229
964.572
984.198
1001.82
1017.16
1030.03
1040.28
1047.91
1053.06
1056.15
1058.06
1060.29
1066.24
1077.89
801.617
823.524
847.491
872.162
896.671
920.535
943.386
964.886
984.724
1002.61
1018.28
1031.52
1042.18
1050.24
1055.84
1059.35
1061.62
1064.08
1070.07
1081.43
801.617
823.524
847.491
872.162
896.671
920.535
943.386
964.886
984.724
1002.61
1018.28
1031.52
1042.19
1050.25
1055.84
1059.35
1061.62
1064.08
1070.07
1081.43
801.602
823.523
847.515
872.197
896.684
920.486
943.23
964.573
984.199
1001.82
1017.17
1030.03
1040.28
1047.91
1053.06
1056.16
1058.06
1060.29
1066.24
1077.89
801.569
823.514
847.523
872.149
896.471
919.99
942.325
963.136
982.113
998.978
1013.49
1025.46
1034.81
1041.55
1045.89
1048.33
1049.82
1052.02
1058.49
1071.53
801.488
823.396
847.219
871.4
895.005
917.56
938.728
958.215
975.763
991.154
1004.21
1014.83
1022.97
1028.75
1032.47
1034.75
1036.71
1040.25
1049.24
1066.39
801.113
822.39
845.036
867.513
889.047
909.349
928.239
945.549
961.126
974.842
986.598
996.355
1004.17
1010.23
1014.96
1019.12
1024.07
1032.05
1047.3
1073.04
798.98
816.975
836.033
855.115
873.747
891.797
909.149
925.642
941.105
955.384
968.367
980.012
990.399
999.783
1008.68
1018.02
1029.4
1045.41
1070.65
1108.6
790.71
803.727
821.405
841.409
862.373
883.609
904.637
925.065
944.594
963.023
980.243
996.264
1011.25
1025.55
1039.83
1055.17
1073.36
1097.23
1131.48
1179.35
745.807
786.814
827.507
865.748
901.027
933.348
962.794
989.498
1013.64
1035.45
1055.17
1073.09
1089.62
1105.32
1121.02
1137.88
1157.71
1183.18
1218.52
1266.18
725.877
815.021
884.889
941.154
987.541
1026.29
1058.84
1086.29
1109.53
1129.31
1146.23
1160.86
1173.76
1185.59
1197.1
1209.16
1223.14
1241.06
1265.93
1299.01
471.655
496.841
523.034
549.675
576.317
602.64
628.434
653.569
677.962
701.564
724.353
746.342
767.577
788.135
808.119
827.792
847.309
866.829
886.601
906.412
471.677
497.027
523.588
550.808
578.225
605.506
632.417
658.796
684.526
709.518
733.718
757.11
779.714
801.577
822.772
843.527
863.953
884.197
904.461
924.757
727.081
818.28
891.874
953.207
1005.41
1050.26
1088.89
1122.19
1150.92
1175.75
1197.26
1216.03
1232.67
1247.87
1262.42
1277.18
1293.43
1312.9
1337.81
1369.24
749.142
795.465
842.309
886.757
927.805
965.243
999.12
1029.63
1057.05
1081.73
1104.04
1124.41
1143.36
1161.54
1179.8
1199.34
1221.82
1249.55
1285.61
1331.9
800.489
819.662
840.041
860.648
881.063
901.211
921.033
940.423
959.275
977.504
995.081
1012.06
1028.63
1045.21
1062.48
1081.53
1104.02
1132.42
1170.22
1219.95
842.76
845.433
851.174
859.098
868.443
878.783
889.828
901.327
913.05
924.797
936.416
947.845
959.149
970.578
982.662
996.328
1013.09
1035.32
1066.52
1109.57
849.686
857.156
865.084
873.33
881.689
890.075
898.421
906.639
914.614
922.222
929.346
935.921
941.977
947.699
953.508
960.181
969.037
982.184
1002.93
1034.16
851.256
861.145
871.705
882.455
892.999
903.136
912.728
921.65
929.773
936.96
943.085
948.057
951.866
954.636
956.689
958.663
961.677
967.558
979.314
999.621
851.522
861.876
873.267
885.196
897.17
908.869
920.051
930.502
940.01
948.37
955.387
960.902
964.835
967.226
968.298
968.557
968.945
971.042
977.577
990.93
851.574
861.963
873.496
885.735
898.198
910.551
922.526
933.877
944.355
953.712
961.703
968.117
972.814
975.766
977.119
977.277
977.055
977.854
982.203
992.229
851.59
861.969
873.504
885.793
898.37
910.907
923.14
934.819
945.692
955.498
963.975
970.891
976.079
979.478
981.194
981.582
981.39
981.933
985.635
994.484
851.59
861.969
873.504
885.793
898.37
910.907
923.14
934.82
945.693
955.498
963.975
970.892
976.08
979.479
981.195
981.583
981.391
981.934
985.636
994.485
851.574
861.964
873.496
885.735
898.199
910.552
922.527
933.878
944.356
953.713
961.704
968.119
972.816
975.769
977.121
977.28
977.058
977.857
982.207
992.232
851.523
861.876
873.268
885.197
897.171
908.87
920.053
930.503
940.012
948.373
955.389
960.905
964.838
967.229
968.302
968.561
968.95
971.046
977.581
990.933
851.256
861.146
871.707
882.456
893.001
903.137
912.729
921.652
929.775
936.962
943.087
948.059
951.869
954.639
956.693
958.667
961.681
967.561
979.316
999.621
849.687
857.157
865.086
873.332
881.692
890.078
898.424
906.641
914.616
922.223
929.347
935.922
941.978
947.701
953.509
960.181
969.037
982.183
1002.92
1034.15
842.76
845.431
851.173
859.098
868.445
878.785
889.831
901.33
913.053
924.8
936.418
947.847
959.15
970.579
982.663
996.327
1013.09
1035.32
1066.51
1109.56
800.488
819.656
840.033
860.64
881.057
901.207
921.031
940.424
959.276
977.505
995.082
1012.06
1028.63
1045.21
1062.49
1081.54
1104.03
1132.43
1170.22
1219.96
749.14
795.456
842.3
886.753
927.808
965.253
999.135
1029.65
1057.07
1081.75
1104.06
1124.44
1143.39
1161.57
1179.83
1199.37
1221.85
1249.58
1285.65
1331.94
727.082
818.256
891.84
953.176
1005.38
1050.24
1088.88
1122.19
1150.93
1175.77
1197.29
1216.06
1232.71
1247.91
1262.47
1277.23
1293.49
1312.97
1337.89
1369.33
471.68
497.002
523.543
550.751
578.16
605.435
632.343
658.72
684.449
709.442
733.645
757.042
779.65
801.519
822.721
843.484
863.919
884.173
904.448
924.755
471.671
497.023
523.644
551.013
578.686
606.345
633.762
660.77
687.236
713.051
738.132
762.435
785.946
808.684
830.692
852.037
872.839
893.38
913.82
934.267
727.282
818.574
892.721
955.255
1009.24
1056.38
1097.71
1134.02
1166
1194.21
1219.18
1241.4
1261.45
1279.94
1297.65
1315.5
1334.6
1356.25
1382.21
1413.54
749.687
797.03
845.897
893.301
937.924
979.266
1017.17
1051.69
1083.03
1111.47
1137.39
1161.21
1183.46
1204.83
1226.19
1248.63
1273.63
1303.17
1339.62
1384.63
802.862
825.675
850.14
874.797
898.964
922.46
945.218
967.194
988.368
1008.76
1028.44
1047.57
1066.42
1085.47
1105.4
1127.26
1152.59
1183.48
1222.62
1272.1
851.057
859.52
868.515
877.982
887.789
897.925
908.404
919.215
930.328
941.707
953.333
965.245
977.589
990.689
1005.13
1021.82
1042.15
1068.16
1102.57
1147.73
889.829
888.233
888.63
890.549
893.458
897.042
901.135
905.639
910.481
915.603
920.965
926.584
932.566
939.164
946.856
956.431
969.141
986.859
1012.19
1047.58
895.64
898.326
901.064
903.909
906.744
909.497
912.139
914.66
917.04
919.248
921.254
923.057
924.731
926.475
928.681
932.026
937.605
947.098
962.923
987.45
896.86
901.452
906.263
911.09
915.678
919.871
923.586
926.778
929.404
931.416
932.759
933.402
933.378
932.826
932.058
931.644
932.539
936.232
944.948
960.916
897.06
902.023
907.481
913.204
918.862
924.215
929.103
933.411
937.036
939.873
941.815
942.777
942.731
941.756
940.085
938.195
936.923
937.607
942.313
953.124
897.091
902.093
907.674
913.634
919.643
925.446
930.86
935.745
939.968
943.39
945.87
947.285
947.568
946.753
945.025
942.803
940.854
940.431
943.506
952.071
897.091
902.093
907.674
913.634
919.643
925.446
930.86
935.745
939.968
943.391
945.871
947.286
947.569
946.754
945.026
942.804
940.855
940.432
943.507
952.072
897.06
902.023
907.481
913.204
918.862
924.216
929.104
933.412
937.037
939.875
941.817
942.779
942.734
941.758
940.087
938.198
936.925
937.61
942.315
953.125
896.86
901.453
906.264
911.091
915.679
919.872
923.587
926.779
929.406
931.417
932.761
933.404
933.38
932.828
932.061
931.647
932.541
936.234
944.949
960.915
895.64
898.327
901.066
903.912
906.747
909.5
912.142
914.662
917.042
919.25
921.256
923.059
924.733
926.477
928.683
932.027
937.606
947.097
962.92
987.445
889.829
888.231
888.628
890.548
893.459
897.044
901.137
905.641
910.484
915.606
920.968
926.586
932.568
939.166
946.857
956.431
969.139
986.855
1012.19
1047.57
851.057
859.514
868.509
877.976
887.784
897.922
908.403
919.216
930.33
941.709
953.336
965.248
977.593
990.692
1005.13
1021.82
1042.15
1068.16
1102.56
1147.73
802.861
825.668
850.13
874.787
898.956
922.454
945.215
967.193
988.368
1008.76
1028.44
1047.57
1066.43
1085.48
1105.4
1127.27
1152.59
1183.49
1222.63
1272.1
749.686
797.02
845.888
893.297
937.926
979.275
1017.18
1051.71
1083.05
1111.5
1137.41
1161.23
1183.49
1204.86
1226.22
1248.66
1273.66
1303.2
1339.66
1384.66
727.283
818.55
892.687
955.223
1009.22
1056.37
1097.7
1134.02
1166.01
1194.23
1219.2
1241.43
1261.48
1279.98
1297.7
1315.55
1334.66
1356.32
1382.29
1413.63
471.674
496.998
523.6
550.956
578.621
606.275
633.689
660.695
687.162
712.978
738.063
762.37
785.887
808.631
830.646
852.001
872.812
893.363
913.814
934.271
471.667
497.012
523.642
551.046
578.787
606.55
634.115
661.318
688.029
714.136
739.554
764.231
788.145
811.302
833.732
855.486
876.638
897.383
917.929
938.423
727.353
818.593
892.777
955.592
1010.15
1058.15
1100.62
1138.35
1171.99
1202.08
1229.11
1253.53
1275.86
1296.69
1316.73
1336.81
1357.97
1381.38
1408.39
1440.13
749.777
797.164
846.379
894.608
940.529
983.582
1023.54
1060.4
1094.29
1125.46
1154.19
1180.87
1206
1230.2
1254.28
1279.27
1306.46
1337.5
1374.33
1418.5
803.242
826.729
852.476
879.024
905.539
931.68
957.257
982.138
1006.25
1029.58
1052.18
1074.21
1095.94
1117.84
1140.58
1165.14
1192.82
1225.44
1265.14
1313.8
852.852
864.048
876.111
888.66
901.402
914.251
927.201
940.267
953.47
966.842
980.436
994.364
1008.84
1024.23
1041.1
1060.34
1083.2
1111.43
1147.23
1192.63
896.901
900.468
904.129
908.018
912.079
916.305
920.737
925.434
930.456
935.861
941.711
948.106
955.229
963.398
973.134
985.215
1000.79
1021.49
1049.43
1086.72
932.094
928.401
926.153
925.028
924.614
924.643
924.973
925.54
926.321
927.316
928.542
930.062
932.018
934.675
938.478
944.125
952.66
965.587
984.916
1012.74
937.061
937.131
937.106
937.086
936.993
936.757
936.345
935.75
934.98
934.041
932.943
931.729
930.507
929.493
929.071
929.86
932.811
939.312
951.267
970.73
938.048
939.684
941.359
942.956
944.289
945.225
945.687
945.642
945.076
943.979
942.344
940.19
937.595
934.74
931.961
929.817
929.188
931.379
938.216
951.721
938.2
940.146
942.337
944.614
946.722
948.461
949.694
950.334
950.324
949.618
948.179
945.995
943.118
939.698
936.041
932.671
930.426
930.566
934.875
945.358
938.2
940.146
942.337
944.614
946.722
948.461
949.694
950.334
950.324
949.619
948.18
945.996
943.119
939.699
936.042
932.672
930.427
930.567
934.875
945.358
938.048
939.684
941.36
942.957
944.289
945.225
945.688
945.643
945.077
943.98
942.345
940.192
937.597
934.742
931.962
929.819
929.189
931.38
938.216
951.72
937.061
937.131
937.108
937.088
936.995
936.759
936.347
935.753
934.982
934.042
932.945
931.731
930.508
929.495
929.073
929.862
932.812
939.312
951.265
970.727
932.094
928.399
926.151
925.028
924.615
924.645
924.976
925.542
926.324
927.319
928.545
930.065
932.021
934.678
938.481
944.127
952.66
965.586
984.912
1012.74
896.9
900.463
904.123
908.012
912.075
916.303
920.735
925.433
930.457
935.863
941.713
948.109
955.233
963.401
973.136
985.216
1000.79
1021.49
1049.43
1086.71
852.852
864.042
876.103
888.652
901.396
914.246
927.198
940.265
953.471
966.844
980.439
994.367
1008.84
1024.23
1041.1
1060.34
1083.2
1111.43
1147.22
1192.62
803.241
826.721
852.467
879.015
905.531
931.674
957.253
982.136
1006.25
1029.58
1052.18
1074.21
1095.94
1117.84
1140.59
1165.15
1192.83
1225.44
1265.14
1313.8
749.776
797.155
846.371
894.604
940.531
983.591
1023.56
1060.42
1094.31
1125.48
1154.21
1180.9
1206.03
1230.23
1254.31
1279.3
1306.49
1337.53
1374.37
1418.54
727.354
818.569
892.744
955.561
1010.13
1058.14
1100.62
1138.36
1172
1202.1
1229.13
1253.56
1275.89
1296.74
1316.78
1336.86
1358.03
1381.44
1408.46
1440.21
471.669
496.987
523.597
550.989
578.722
606.481
634.043
661.245
687.956
714.065
739.488
764.17
788.09
811.254
833.691
855.454
876.617
897.372
917.929
938.433
471.664
497.006
523.641
551.062
578.836
606.652
634.291
661.594
688.433
714.697
740.298
765.179
789.315
812.702
835.361
857.328
878.663
899.446
919.897
940.23
727.389
818.603
892.764
955.637
1010.38
1058.68
1101.61
1139.94
1174.35
1205.39
1233.53
1259.23
1283
1305.4
1327.09
1348.85
1371.61
1396.48
1424.6
1457.06
749.808
797.149
846.36
894.742
941.023
984.653
1025.41
1063.28
1098.41
1131
1161.35
1189.81
1216.83
1242.99
1269.04
1295.9
1324.73
1356.94
1394.15
1437.9
803.304
826.82
852.774
879.819
907.143
934.382
961.319
987.795
1013.71
1039.02
1063.74
1088
1112.04
1136.28
1161.33
1188.07
1217.64
1251.54
1291.6
1339.59
853.13
864.827
877.814
891.705
906.118
920.871
935.88
951.105
966.536
982.183
998.09
1014.36
1031.21
1049
1068.27
1089.82
1114.75
1144.55
1181.06
1226.21
898.333
904.087
910.206
916.58
923.04
929.523
936.057
942.715
949.595
956.799
964.439
972.664
981.7
991.896
1003.77
1018.05
1035.79
1058.42
1087.73
1125.71
938.221
939.084
939.871
940.751
941.698
942.696
943.765
944.958
946.347
948.011
950.039
952.555
955.754
959.943
965.593
973.395
984.327
999.736
1021.36
1051.19
970.352
965.461
961.746
958.947
956.712
954.797
953.061
951.437
949.913
948.504
947.251
946.234
945.608
945.642
946.764
949.616
955.13
964.604
979.746
1002.55
974.689
973.131
971.449
969.729
967.898
965.881
963.632
961.136
958.409
955.479
952.39
949.219
946.11
943.317
941.247
940.522
942.052
947.12
957.43
975.005
975.5
975.233
974.894
974.374
973.517
972.207
970.38
968.016
965.135
961.776
957.991
953.867
949.554
945.307
941.536
938.86
938.191
940.812
948.444
963.139
975.5
975.233
974.894
974.374
973.517
972.207
970.38
968.016
965.135
961.776
957.991
953.867
949.554
945.307
941.536
938.861
938.191
940.812
948.443
963.138
974.689
973.131
971.45
969.731
967.9
965.884
963.634
961.138
958.41
955.48
952.391
949.22
946.111
943.318
941.248
940.523
942.053
947.12
957.429
975.003
970.353
965.459
961.745
958.946
956.712
954.798
953.063
951.44
949.916
948.507
947.253
946.236
945.611
945.645
946.766
949.618
955.131
964.604
979.744
1002.54
938.22
939.08
939.866
940.745
941.694
942.693
943.763
944.957
946.347
948.012
950.041
952.558
955.758
959.947
965.596
973.398
984.328
999.734
1021.36
1051.19
898.332
904.082
910.199
916.574
923.034
929.519
936.054
942.713
949.594
956.8
964.441
972.667
981.704
991.9
1003.77
1018.05
1035.79
1058.42
1087.73
1125.7
853.129
864.821
877.806
891.697
906.112
920.866
935.876
951.103
966.536
982.184
998.093
1014.37
1031.22
1049
1068.27
1089.82
1114.75
1144.54
1181.05
1226.2
803.303
826.813
852.765
879.81
907.135
934.376
961.315
987.793
1013.71
1039.02
1063.74
1088.01
1112.05
1136.29
1161.34
1188.07
1217.65
1251.55
1291.6
1339.59
749.807
797.139
846.352
894.739
941.026
984.662
1025.42
1063.3
1098.43
1131.02
1161.37
1189.83
1216.85
1243.02
1269.07
1295.93
1324.76
1356.97
1394.18
1437.93
727.39
818.579
892.731
955.606
1010.35
1058.67
1101.6
1139.95
1174.36
1205.4
1233.55
1259.26
1283.04
1305.44
1327.14
1348.9
1371.67
1396.54
1424.67
1457.14
471.666
496.981
523.596
551.005
578.772
606.583
634.219
661.522
688.362
714.628
740.233
765.12
789.262
812.657
835.323
857.3
878.646
899.44
919.901
940.244
471.662
497.004
523.646
551.084
578.885
606.739
634.428
661.794
688.708
715.059
740.758
765.747
789.996
813.496
836.262
858.321
879.72
900.523
920.808
940.866
727.405
818.62
892.79
955.718
1010.59
1059.11
1102.34
1141.08
1176.01
1207.69
1236.61
1263.22
1288.02
1311.56
1334.49
1357.52
1381.51
1407.44
1436.45
1469.6
749.823
797.14
846.331
894.75
941.162
985.032
1026.15
1064.51
1100.26
1133.62
1164.89
1194.4
1222.59
1250.03
1277.39
1305.51
1335.41
1368.35
1405.74
1449.18
803.319
826.805
852.754
879.894
907.45
935.071
962.549
989.732
1016.52
1042.88
1068.8
1094.41
1119.9
1145.67
1172.25
1200.44
1231.22
1265.91
1306.07
1353.5
853.167
864.893
878.035
892.282
907.267
922.796
938.773
955.142
971.877
988.974
1006.46
1024.41
1043.02
1062.6
1083.65
1106.9
1133.31
1164.17
1201.1
1246.02
898.545
904.705
911.552
918.969
926.718
934.668
942.787
951.111
959.712
968.68
978.118
988.173
999.068
1011.14
1024.89
1041.01
1060.45
1084.48
1114.73
1153.2
939.404
942.088
944.921
947.867
950.813
953.7
956.537
959.386
962.345
965.526
969.056
973.096
977.875
983.73
991.146
1000.81
1013.65
1030.92
1054.26
1085.71
975.75
974.909
973.951
973.024
972.103
971.155
970.176
969.198
968.287
967.529
967.027
966.921
967.42
968.844
971.662
976.548
984.43
996.569
1014.61
1040.63
1005.31
999.621
994.903
990.905
987.308
983.895
980.537
977.185
973.85
970.582
967.466
964.628
962.272
960.712
960.42
962.077
966.63
975.365
989.962
1012.55
1009.07
1006.14
1002.9
999.463
995.784
991.842
987.639
983.208
978.619
973.962
969.348
964.927
960.914
957.638
955.581
955.438
958.174
965.1
977.93
998.826
1009.07
1006.14
1002.9
999.465
995.786
991.844
987.64
983.21
978.62
973.963
969.349
964.927
960.915
957.639
955.582
955.438
958.174
965.1
977.929
998.825
1005.31
999.62
994.901
990.904
987.309
983.896
980.539
977.187
973.851
970.584
967.467
964.63
962.273
960.714
960.422
962.078
966.631
975.365
989.962
1012.55
975.75
974.905
973.945
973.019
972.099
971.152
970.174
969.197
968.287
967.53
967.028
966.923
967.423
968.847
971.665
976.55
984.432
996.569
1014.61
1040.63
939.403
942.083
944.915
947.861
950.808
953.696
956.534
959.384
962.344
965.527
969.058
973.099
977.878
983.733
991.15
1000.81
1013.65
1030.92
1054.26
1085.7
898.545
904.7
911.546
918.962
926.712
934.663
942.783
951.109
959.711
968.68
978.12
988.176
999.071
1011.14
1024.89
1041.01
1060.45
1084.48
1114.72
1153.19
853.166
864.887
878.028
892.275
907.261
922.791
938.769
955.14
971.877
988.975
1006.46
1024.41
1043.02
1062.6
1083.65
1106.9
1133.31
1164.17
1201.09
1246.01
803.318
826.798
852.745
879.886
907.442
935.065
962.545
989.731
1016.52
1042.88
1068.81
1094.41
1119.91
1145.67
1172.26
1200.44
1231.23
1265.91
1306.07
1353.5
749.821
797.131
846.322
894.747
941.165
985.041
1026.16
1064.52
1100.28
1133.64
1164.91
1194.42
1222.62
1250.06
1277.41
1305.53
1335.44
1368.38
1405.77
1449.21
727.405
818.596
892.756
955.687
1010.57
1059.1
1102.34
1141.09
1176.02
1207.71
1236.63
1263.25
1288.05
1311.61
1334.54
1357.57
1381.56
1407.5
1436.52
1469.67
471.664
496.979
523.601
551.027
578.82
606.67
634.357
661.722
688.637
714.991
740.695
765.69
789.945
813.453
836.226
858.295
879.705
900.519
920.815
940.884
471.66
497.004
523.654
551.11
578.938
606.829
634.564
661.986
688.966
715.39
741.169
766.241
790.57
814.144
836.968
859.06
880.456
901.201
921.357
941.014
727.403
818.633
892.842
955.85
1010.86
1059.58
1103.08
1142.18
1177.54
1209.76
1239.31
1266.66
1292.3
1316.79
1340.71
1364.78
1389.75
1416.54
1446.16
1479.88
749.824
797.14
846.341
894.807
941.321
985.357
1026.71
1065.39
1101.54
1135.41
1167.27
1197.48
1226.46
1254.73
1282.96
1311.92
1342.53
1375.88
1413.29
1456.4
803.317
826.786
852.728
879.903
907.554
935.343
963.069
990.589
1017.81
1044.71
1071.28
1097.62
1123.94
1150.59
1178.06
1207.08
1238.54
1273.6
1313.67
1360.66
853.166
864.873
878.025
892.35
907.502
923.296
939.64
956.484
973.805
991.598
1009.88
1028.73
1048.31
1068.91
1091.01
1115.26
1142.55
1174.06
1211.28
1256.28
898.563
904.754
911.735
919.429
927.602
936.111
944.913
954.028
963.518
973.461
983.954
995.132
1007.21
1020.52
1035.53
1052.94
1073.64
1098.85
1130.13
1169.66
939.568
942.593
946.015