/*--------------------------------*- C++ -*----------------------------------*\
  =========                 |
  \\      /  F ield         | OpenFOAM: The Open Source CFD Toolbox
   \\    /   O peration     | Website:  https://openfoam.org
    \\  /    A nd           | Version:  10
     \\/     M anipulation  |
\*---------------------------------------------------------------------------*/
FoamFile
{
    format      ascii;
    class       volScalarField;
    location    "100";
    object      nut;
}
// * * * * * * * * * * * * * * * * * * * * * * * * * * * * * * * * * * * * * //

dimensions      [0 2 -1 0 0 0 0];

internalField   nonuniform List<scalar> 
112000
(
0.00602481
0.00609279
0.00616305
0.00623474
0.00630658
0.00637805
0.00644916
0.00652007
0.00659095
0.00666196
0.00673332
0.00680532
0.00687831
0.00695271
0.00702903
0.0071078
0.00718962
0.00727497
0.00736659
0.00744293
0.00609136
0.00622864
0.00636144
0.0064901
0.0066142
0.00673372
0.00684898
0.00696041
0.0070684
0.00717331
0.00727551
0.00737542
0.00747356
0.0075705
0.00766692
0.00776362
0.00786169
0.00796257
0.00807222
0.00817263
0.00609984
0.00625647
0.00641235
0.00656503
0.00671295
0.00685534
0.00699203
0.00712319
0.00724914
0.00737023
0.00748688
0.00759955
0.0077088
0.00781525
0.00791962
0.00802274
0.00812568
0.00822984
0.00834156
0.00844167
0.00610159
0.00626346
0.00642833
0.00659279
0.00675434
0.0069114
0.00706311
0.00720908
0.00734922
0.00748359
0.00761237
0.00773594
0.00785476
0.00796941
0.00808058
0.00818902
0.00829569
0.00840167
0.00851297
0.00860788
0.00610172
0.00626434
0.00643116
0.00659874
0.00676445
0.00692659
0.00708415
0.00723656
0.00738354
0.00752498
0.00766095
0.00779169
0.00791757
0.00803908
0.00815682
0.00827146
0.00838381
0.00849476
0.00860994
0.00870567
0.00610169
0.00626426
0.00643132
0.00659961
0.00676658
0.00693061
0.00709071
0.00724631
0.00739704
0.00754271
0.00768328
0.0078189
0.00794983
0.00807649
0.00819936
0.00831907
0.00843637
0.00855201
0.00867152
0.00876989
0.00610166
0.00626415
0.00643116
0.0065995
0.00676664
0.00693099
0.00709161
0.00724794
0.00739965
0.00754656
0.00768864
0.00782603
0.00795901
0.00808798
0.00821343
0.008336
0.00845642
0.00857546
0.0086987
0.00880054
0.00610165
0.00626408
0.00643104
0.00659933
0.00676645
0.00693083
0.00709155
0.00724807
0.00740008
0.00754742
0.00769008
0.0078282
0.00796207
0.0080921
0.0082188
0.00834278
0.00846482
0.00858571
0.00871109
0.00881512
0.00610165
0.00626405
0.00643097
0.00659922
0.00676631
0.00693066
0.00709136
0.00724787
0.00739991
0.0075473
0.00769005
0.00782832
0.00796241
0.00809273
0.00821982
0.0083443
0.00846697
0.00858866
0.00871508
0.00882033
0.00610165
0.00626404
0.00643093
0.00659917
0.00676624
0.00693058
0.00709125
0.00724775
0.00739977
0.00754717
0.00768994
0.00782824
0.00796238
0.00809279
0.00821999
0.00834464
0.00846753
0.0085895
0.0087163
0.00882202
0.00610165
0.00626404
0.00643094
0.00659917
0.00676624
0.00693058
0.00709126
0.00724775
0.00739978
0.00754717
0.00768994
0.00782824
0.00796239
0.0080928
0.00822
0.00834464
0.00846753
0.0085895
0.00871631
0.00882203
0.00610165
0.00626405
0.00643097
0.00659922
0.00676631
0.00693067
0.00709136
0.00724788
0.00739991
0.0075473
0.00769006
0.00782833
0.00796242
0.00809274
0.00821982
0.00834431
0.00846698
0.00858867
0.00871509
0.00882034
0.00610165
0.00626408
0.00643104
0.00659933
0.00676645
0.00693084
0.00709155
0.00724807
0.00740009
0.00754743
0.00769009
0.00782821
0.00796208
0.00809211
0.00821881
0.00834279
0.00846484
0.00858572
0.00871111
0.00881515
0.00610166
0.00626415
0.00643117
0.0065995
0.00676664
0.00693099
0.00709161
0.00724794
0.00739965
0.00754657
0.00768865
0.00782604
0.00795902
0.00808799
0.00821345
0.00833601
0.00845644
0.00857548
0.00869872
0.00880057
0.00610169
0.00626426
0.00643132
0.00659961
0.00676658
0.00693061
0.00709072
0.00724631
0.00739705
0.00754272
0.0076833
0.00781892
0.00794986
0.00807651
0.00819939
0.0083191
0.00843639
0.00855204
0.00867156
0.00876993
0.00610172
0.00626434
0.00643116
0.00659874
0.00676445
0.00692659
0.00708415
0.00723657
0.00738356
0.007525
0.00766097
0.00779171
0.0079176
0.00803912
0.00815686
0.00827149
0.00838385
0.0084948
0.00860999
0.00870573
0.00610159
0.00626345
0.00642832
0.00659279
0.00675434
0.0069114
0.00706311
0.0072091
0.00734924
0.00748361
0.0076124
0.00773597
0.0078548
0.00796946
0.00808063
0.00818908
0.00829574
0.00840174
0.00851304
0.00860795
0.00609984
0.00625647
0.00641235
0.00656503
0.00671295
0.00685534
0.00699204
0.00712321
0.00724917
0.00737027
0.00748693
0.00759961
0.00770886
0.00781532
0.0079197
0.00802283
0.00812577
0.00822993
0.00834165
0.00844178
0.00609136
0.00622863
0.00636144
0.00649012
0.00661423
0.00673377
0.00684906
0.0069605
0.00706852
0.00717345
0.00727567
0.0073756
0.00747375
0.00757069
0.00766712
0.00776383
0.00786191
0.00796279
0.00807244
0.00817285
0.00602481
0.00609277
0.00616301
0.0062347
0.00630653
0.006378
0.0064491
0.00652
0.00659087
0.00666189
0.00673325
0.00680524
0.00687823
0.00695263
0.00702894
0.00710771
0.00718953
0.00727489
0.0073665
0.00744284
0.00609058
0.00622593
0.00635582
0.00648067
0.00660016
0.00671429
0.00682342
0.00692799
0.00702848
0.00712556
0.00721953
0.00731081
0.0073999
0.00748735
0.00757382
0.00766002
0.00774673
0.00783464
0.00792569
0.00801264
0.0579053
0.0521421
0.0482162
0.0452752
0.0429514
0.0410435
0.0394314
0.0380405
0.0368203
0.0357277
0.0347422
0.0338499
0.0330423
0.0323154
0.0316706
0.031116
0.0306711
0.0303738
0.0303265
0.0306043
0.063954
0.0610123
0.058493
0.0562534
0.0542508
0.052449
0.050817
0.0493312
0.0479737
0.0467303
0.0455904
0.0445475
0.0435997
0.0427502
0.0420091
0.0413969
0.0409524
0.0407464
0.0409561
0.0417172
0.0644148
0.0620955
0.0601678
0.0584286
0.0568224
0.0553223
0.0539118
0.0525815
0.0513268
0.0501446
0.0490335
0.0479944
0.0470307
0.0461504
0.0453676
0.0447068
0.0442117
0.043961
0.0441546
0.0449495
0.0644766
0.0622745
0.060523
0.0589929
0.0576009
0.0563028
0.0550721
0.0538948
0.0527642
0.0516775
0.0506346
0.0496378
0.0486926
0.0478079
0.0469981
0.0462866
0.0457143
0.0453529
0.0453943
0.0459743
0.0644874
0.0622995
0.060584
0.059115
0.0578032
0.0565976
0.0554661
0.0543894
0.0533563
0.0523606
0.0513993
0.0504729
0.049585
0.0487429
0.0479594
0.0472554
0.0466674
0.0462592
0.0462103
0.0466279
0.064491
0.0623029
0.0605915
0.059136
0.057848
0.0566755
0.0555849
0.0545554
0.0535742
0.0526333
0.0517278
0.0508564
0.0500211
0.0492279
0.0484876
0.0478193
0.0472567
0.0468584
0.0467965
0.0471565
0.0644928
0.0623037
0.0605907
0.059136
0.0578526
0.0566884
0.0556101
0.0545969
0.0536359
0.0527186
0.0518399
0.0509978
0.0501936
0.0494326
0.048725
0.048089
0.0475569
0.0471852
0.0471431
0.0475049
0.0644939
0.0623041
0.0605896
0.059134
0.0578508
0.0566883
0.0556131
0.0546046
0.05365
0.0527412
0.0518728
0.0510429
0.0502529
0.0495079
0.0488178
0.0482009
0.0476889
0.047338
0.0473168
0.0476946
0.0644943
0.0623044
0.0605892
0.0591329
0.0578494
0.056687
0.0556123
0.0546048
0.0536518
0.0527453
0.05188
0.0510541
0.0502689
0.0495296
0.0488464
0.0482373
0.0477343
0.0473934
0.0473834
0.047772
0.0644943
0.0623044
0.0605892
0.0591329
0.0578494
0.056687
0.0556123
0.0546048
0.0536518
0.0527452
0.05188
0.051054
0.0502689
0.0495296
0.0488464
0.0482373
0.0477342
0.0473933
0.0473833
0.047772
0.0644939
0.0623041
0.0605896
0.059134
0.0578508
0.0566883
0.0556131
0.0546046
0.05365
0.0527411
0.0518728
0.0510429
0.0502529
0.0495078
0.0488178
0.0482008
0.0476889
0.0473379
0.0473167
0.0476945
0.0644929
0.0623037
0.0605907
0.059136
0.0578526
0.0566884
0.0556101
0.0545969
0.0536358
0.0527186
0.0518399
0.0509977
0.0501935
0.0494326
0.048725
0.048089
0.0475569
0.0471852
0.0471431
0.0475049
0.064491
0.0623029
0.0605915
0.059136
0.057848
0.0566755
0.0555849
0.0545554
0.0535742
0.0526333
0.0517278
0.0508564
0.0500211
0.0492278
0.0484876
0.0478193
0.0472567
0.0468584
0.0467965
0.0471565
0.0644875
0.0622995
0.0605841
0.059115
0.0578032
0.0565976
0.0554661
0.0543894
0.0533563
0.0523606
0.0513994
0.050473
0.049585
0.048743
0.0479595
0.0472555
0.0466675
0.0462593
0.0462104
0.046628
0.0644766
0.0622745
0.0605231
0.058993
0.057601
0.0563028
0.0550722
0.0538949
0.0527643
0.0516777
0.0506348
0.0496381
0.0486929
0.0478082
0.0469983
0.0462869
0.0457146
0.0453533
0.0453947
0.0459747
0.0644149
0.0620956
0.0601678
0.0584287
0.0568225
0.0553224
0.0539119
0.0525817
0.051327
0.0501449
0.0490339
0.0479948
0.0470313
0.0461511
0.0453683
0.0447075
0.0442126
0.0439619
0.0441556
0.0449505
0.0639541
0.0610121
0.0584929
0.0562534
0.0542508
0.052449
0.0508171
0.0493312
0.0479737
0.0467303
0.0455905
0.0445477
0.0436
0.0427506
0.0420096
0.0413975
0.0409532
0.0407474
0.0409573
0.0417186
0.0579055
0.0521416
0.048216
0.0452756
0.0429524
0.041045
0.0394334
0.0380428
0.0368231
0.0357308
0.0347457
0.0338537
0.0330462
0.0323195
0.0316748
0.0311203
0.0306756
0.0303783
0.0303312
0.0306092
0.00609059
0.00622584
0.00635565
0.00648047
0.00659992
0.00671405
0.00682317
0.00692774
0.00702823
0.0071253
0.00721928
0.00731057
0.00739966
0.00748712
0.0075736
0.00765981
0.00774653
0.00783446
0.00792552
0.00801248
0.00609973
0.00625536
0.0064093
0.0065591
0.00670322
0.00684093
0.00697213
0.00709702
0.00721595
0.00732937
0.00743821
0.00754282
0.00764366
0.00774132
0.00783642
0.00792972
0.00802202
0.00811416
0.00820766
0.0082994
0.0640099
0.0611052
0.0586089
0.0563835
0.0543873
0.0525856
0.0509481
0.0494512
0.0480769
0.0468094
0.0456154
0.0444939
0.0434456
0.0424734
0.0415844
0.0407895
0.0401097
0.0395818
0.0392785
0.0392318
0.0735757
0.0739753
0.0740122
0.0736843
0.0730707
0.0722528
0.0712963
0.0702526
0.0691618
0.0680517
0.0669392
0.0658464
0.0647945
0.063806
0.0629071
0.0621341
0.0615418
0.0612153
0.0613082
0.0618887
0.0745499
0.0759255
0.0768593
0.0773456
0.0774554
0.0772704
0.0768608
0.0762855
0.0755934
0.0748243
0.0740112
0.0731831
0.0723684
0.0715978
0.070909
0.0703531
0.0700069
0.069989
0.0705144
0.0716989
0.0747473
0.0764262
0.077691
0.0784942
0.0788841
0.0789347
0.0787165
0.078292
0.077715
0.0770302
0.0762754
0.0754836
0.0746861
0.0739161
0.0732127
0.0726293
0.0722454
0.0721859
0.072687
0.0738934
0.0747848
0.0765341
0.0779188
0.0788782
0.0794396
0.0796594
0.079597
0.0793081
0.0788423
0.0782425
0.0775455
0.0767841
0.0759893
0.0751931
0.0744328
0.0737577
0.0732407
0.0729967
0.0732533
0.0741496
0.0747924
0.0765506
0.0779624
0.0789731
0.0796064
0.0799128
0.0799459
0.0797558
0.0793873
0.0788789
0.0782639
0.0775718
0.0768305
0.0760693
0.0753216
0.0746316
0.0740645
0.0737224
0.0738173
0.0744656
0.0747951
0.0765521
0.0779658
0.0789871
0.0796413
0.0799785
0.0800513
0.0799086
0.0795936
0.0791429
0.0785875
0.0779547
0.0772702
0.0765607
0.075857
0.0751993
0.0746477
0.074296
0.0743448
0.074891
0.0747964
0.076552
0.0779639
0.0789855
0.0796439
0.0799895
0.080075
0.0799495
0.0796562
0.0792315
0.0787059
0.078106
0.0774567
0.0767834
0.0761156
0.0754921
0.0749701
0.0746392
0.0746947
0.0752215
0.0747971
0.076552
0.0779626
0.0789834
0.0796421
0.0799894
0.0800781
0.0799574
0.0796708
0.0792548
0.07874
0.078153
0.0775183
0.0768613
0.076211
0.0756056
0.0751015
0.0747869
0.0748549
0.0753856
0.0747971
0.076552
0.0779626
0.0789834
0.0796421
0.0799894
0.0800781
0.0799574
0.0796708
0.0792548
0.07874
0.078153
0.0775183
0.0768613
0.076211
0.0756056
0.0751015
0.0747869
0.0748549
0.0753856
0.0747965
0.076552
0.0779639
0.0789855
0.0796439
0.0799895
0.080075
0.0799496
0.0796562
0.0792315
0.0787059
0.078106
0.0774566
0.0767834
0.0761156
0.0754921
0.0749701
0.0746393
0.0746947
0.0752215
0.0747951
0.0765521
0.0779658
0.0789871
0.0796413
0.0799786
0.0800514
0.0799087
0.0795936
0.0791429
0.0785875
0.0779547
0.0772702
0.0765607
0.075857
0.0751993
0.0746478
0.074296
0.0743448
0.074891
0.0747924
0.0765506
0.0779624
0.0789731
0.0796065
0.0799129
0.079946
0.0797559
0.0793873
0.078879
0.078264
0.0775718
0.0768306
0.0760693
0.0753217
0.0746317
0.0740646
0.0737225
0.0738174
0.0744657
0.0747848
0.0765341
0.0779188
0.0788783
0.0794397
0.0796594
0.0795971
0.0793083
0.0788425
0.0782427
0.0775457
0.0767843
0.0759894
0.0751933
0.074433
0.0737579
0.073241
0.072997
0.0732536
0.0741499
0.0747473
0.0764262
0.0776911
0.0784943
0.0788842
0.0789347
0.0787165
0.0782922
0.0777151
0.0770304
0.0762757
0.0754839
0.0746865
0.0739165
0.0732133
0.0726299
0.0722461
0.0721867
0.0726879
0.0738944
0.07455
0.0759255
0.0768595
0.0773458
0.0774556
0.0772706
0.076861
0.0762858
0.0755937
0.0748248
0.0740118
0.0731839
0.0723694
0.0715991
0.0709104
0.0703547
0.0700088
0.0699912
0.0705169
0.0717018
0.0735757
0.0739748
0.0740115
0.0736835
0.0730698
0.0722518
0.0712951
0.0702512
0.0691602
0.0680502
0.0669379
0.0658453
0.0647937
0.0638053
0.0629066
0.062134
0.0615421
0.0612161
0.0613095
0.0618906
0.0640101
0.0611044
0.0586086
0.0563842
0.0543891
0.0525884
0.0509517
0.0494553
0.0480814
0.0468145
0.0456209
0.0444997
0.0434516
0.0424795
0.0415905
0.0407956
0.0401159
0.0395881
0.0392849
0.0392381
0.00609974
0.00625526
0.00640913
0.00655888
0.00670296
0.00684067
0.00697186
0.00709675
0.00721568
0.00732911
0.00743795
0.00754257
0.00764343
0.00774109
0.00783621
0.00792952
0.00802184
0.00811401
0.00820753
0.00829928
0.00610155
0.0062626
0.00642574
0.0065875
0.00674536
0.00689779
0.00704397
0.00718355
0.00731645
0.00744275
0.00756269
0.00767663
0.00778509
0.00788867
0.00798806
0.00808474
0.0081795
0.00827319
0.008367
0.00845997
0.0644766
0.0622036
0.0603084
0.0585918
0.0570014
0.0555129
0.0541109
0.0527869
0.0515358
0.0503542
0.0492387
0.048188
0.0472034
0.0462902
0.0454613
0.0446964
0.044016
0.0434548
0.0430648
0.0428712
0.0746187
0.0760319
0.076993
0.0774991
0.0776229
0.0774468
0.0770412
0.0764643
0.0757639
0.0749784
0.074139
0.0732738
0.0724101
0.0715731
0.0707775
0.0700628
0.0694835
0.0691164
0.0690733
0.0694117
0.0771278
0.0779273
0.0789292
0.0799456
0.0808687
0.0816478
0.0822591
0.0826958
0.0829633
0.0830758
0.0830528
0.0829175
0.0826965
0.0824258
0.0821491
0.0819245
0.0818331
0.0819892
0.0825603
0.0836462
0.0776435
0.0787265
0.0798263
0.0808706
0.081819
0.0826535
0.083363
0.0839406
0.0843853
0.0847011
0.0848974
0.0849893
0.0849984
0.0849549
0.0849008
0.0848961
0.0850284
0.0854265
0.0862899
0.0877522
0.0777747
0.0790458
0.0803306
0.0815323
0.0826017
0.0835204
0.0842812
0.084883
0.0853297
0.0856295
0.0857946
0.085841
0.0857903
0.0856713
0.0855237
0.0854038
0.0853959
0.0856264
0.0863023
0.0875756
0.0778006
0.0791186
0.0804802
0.0817822
0.0829635
0.0839942
0.0848591
0.0855512
0.0860706
0.0864229
0.086618
0.0866703
0.0865993
0.0864311
0.0862013
0.0859606
0.0857845
0.0857879
0.0861677
0.0870711
0.077806
0.0791303
0.0805091
0.0818442
0.0830734
0.084164
0.0850969
0.0858615
0.0864541
0.0868766
0.0871354
0.0872415
0.0872108
0.0870656
0.086837
0.0865695
0.0863303
0.0862222
0.0864284
0.0870806
0.0778078
0.0791317
0.0805118
0.0818534
0.0830964
0.0842082
0.0851695
0.0859689
0.0866018
0.0870685
0.0873739
0.0875267
0.0875405
0.0874351
0.0872381
0.0869904
0.0867533
0.0866216
0.0867685
0.0873122
0.0778086
0.0791318
0.080511
0.0818531
0.0830988
0.0842162
0.085186
0.0859971
0.0866449
0.0871297
0.0874557
0.0876311
0.0876687
0.087587
0.0874124
0.0871838
0.0869602
0.0868323
0.0869689
0.0874809
0.0778086
0.0791318
0.080511
0.0818531
0.0830988
0.0842162
0.085186
0.0859971
0.0866449
0.0871297
0.0874557
0.0876311
0.0876687
0.087587
0.0874124
0.0871838
0.0869602
0.0868323
0.0869689
0.087481
0.0778078
0.0791317
0.0805118
0.0818534
0.0830964
0.0842083
0.0851695
0.0859689
0.0866018
0.0870686
0.0873739
0.0875267
0.0875406
0.0874351
0.0872382
0.0869905
0.0867534
0.0866217
0.0867686
0.0873123
0.077806
0.0791303
0.0805092
0.0818442
0.0830735
0.0841641
0.085097
0.0858616
0.0864542
0.0868767
0.0871355
0.0872416
0.0872109
0.0870657
0.0868371
0.0865696
0.0863305
0.0862223
0.0864286
0.0870808
0.0778006
0.0791186
0.0804802
0.0817823
0.0829635
0.0839943
0.0848592
0.0855514
0.0860708
0.0864231
0.0866182
0.0866705
0.0865995
0.0864313
0.0862015
0.0859608
0.0857848
0.0857881
0.0861679
0.0870713
0.0777748
0.0790459
0.0803307
0.0815324
0.0826018
0.0835204
0.0842812
0.084883
0.0853298
0.0856297
0.0857947
0.0858412
0.0857905
0.0856716
0.085524
0.0854042
0.0853964
0.0856269
0.0863028
0.0875762
0.0776435
0.0787266
0.0798265
0.0808709
0.0818193
0.0826537
0.0833632
0.0839408
0.0843855
0.0847013
0.0848977
0.0849897
0.0849989
0.0849555
0.0849016
0.084897
0.0850295
0.0854279
0.0862915
0.0877542
0.0771278
0.0779271
0.0789291
0.0799456
0.0808688
0.0816479
0.0822592
0.082696
0.0829636
0.0830761
0.0830534
0.0829183
0.0826976
0.0824273
0.0821509
0.0819267
0.0818357
0.0819922
0.0825638
0.0836503
0.0746187
0.0760311
0.0769918
0.0774976
0.0776212
0.0774449
0.0770391
0.076462
0.0757613
0.0749757
0.0741362
0.0732712
0.0724077
0.0715711
0.070776
0.0700618
0.0694831
0.0691167
0.0690744
0.0694135
0.0644767
0.0622028
0.060308
0.0585925
0.0570033
0.0555158
0.0541147
0.0527913
0.0515407
0.0503594
0.0492441
0.0481936
0.0472091
0.0462959
0.0454669
0.0447022
0.0440219
0.0434608
0.0430708
0.0428773
0.00610156
0.0062625
0.00642556
0.00658726
0.0067451
0.00689752
0.00704369
0.00718327
0.00731618
0.00744249
0.00756244
0.0076764
0.00778487
0.00788846
0.00798787
0.00808456
0.00817934
0.00827305
0.00836689
0.00845987
0.0061017
0.0062636
0.00642885
0.00659391
0.00675611
0.00691374
0.0070658
0.00721175
0.00735131
0.00748436
0.00761099
0.00773142
0.00784604
0.00795533
0.00805988
0.00816098
0.00825927
0.00835554
0.00845081
0.00854517
0.0645383
0.0623863
0.0606731
0.059172
0.0578032
0.0565251
0.0553134
0.0541554
0.0530455
0.0519812
0.0509623
0.0499906
0.0490706
0.048209
0.0474166
0.0466847
0.0460346
0.0454929
0.0450938
0.044853
0.0748321
0.0765731
0.0778954
0.0787533
0.0791968
0.0793003
0.0791346
0.078762
0.0782356
0.0775994
0.0768899
0.0761388
0.0753755
0.0746309
0.073935
0.0733093
0.0728038
0.0724825
0.0724238
0.0726697
0.0777168
0.0788545
0.0800111
0.0811153
0.0821272
0.0830286
0.0838077
0.0844571
0.0849747
0.0853639
0.0856334
0.085798
0.0858791
0.0859032
0.0859055
0.085938
0.0860721
0.0864042
0.0870567
0.0881076
0.0796407
0.0799577
0.0804872
0.0811563
0.081904
0.0826906
0.083486
0.0842652
0.0850074
0.0856961
0.0863206
0.0868769
0.0873694
0.087814
0.0882405
0.0886979
0.089261
0.0900384
0.0911774
0.0927839
0.0800594
0.0806201
0.0812201
0.0818526
0.0825031
0.0831604
0.0838136
0.0844506
0.0850592
0.085628
0.0861482
0.0866154
0.087032
0.0874102
0.0877759
0.0881737
0.0886758
0.0893915
0.090479
0.092064
0.0801574
0.0808609
0.0816019
0.0823537
0.0830938
0.0838082
0.0844858
0.0851167
0.0856911
0.0862002
0.0866371
0.0869986
0.087287
0.0875132
0.0877002
0.0878882
0.0881436
0.0885693
0.0893222
0.0905358
0.080176
0.0809146
0.0817116
0.082536
0.0833573
0.0841539
0.0849086
0.0856064
0.086234
0.0867798
0.0872342
0.0875916
0.0878517
0.088022
0.0881214
0.0881842
0.0882691
0.0884688
0.0889311
0.0897851
0.0801796
0.0809232
0.0817332
0.0825812
0.0834365
0.0842757
0.085079
0.085829
0.0865095
0.0871059
0.0876059
0.0880006
0.0882865
0.0884678
0.0885589
0.0885892
0.0886104
0.0887063
0.0890153
0.0896578
0.0801805
0.0809242
0.0817358
0.082589
0.0834537
0.0843069
0.0851286
0.0859009
0.0866068
0.0872306
0.0877585
0.0881801
0.0884902
0.0886908
0.088794
0.0888261
0.0888353
0.0889004
0.0891543
0.0897113
0.0801805
0.0809243
0.0817358
0.082589
0.0834537
0.0843069
0.0851286
0.0859009
0.0866068
0.0872306
0.0877585
0.0881801
0.0884902
0.0886908
0.088794
0.0888262
0.0888354
0.0889004
0.0891543
0.0897114
0.0801796
0.0809232
0.0817332
0.0825813
0.0834366
0.0842757
0.0850791
0.085829
0.0865096
0.087106
0.087606
0.0880006
0.0882866
0.0884679
0.088559
0.0885893
0.0886105
0.0887064
0.0890154
0.0896579
0.080176
0.0809146
0.0817116
0.082536
0.0833574
0.0841539
0.0849086
0.0856065
0.0862341
0.0867799
0.0872344
0.0875918
0.0878518
0.0880222
0.0881215
0.0881844
0.0882692
0.0884689
0.0889312
0.0897852
0.0801574
0.080861
0.0816019
0.0823538
0.0830939
0.0838082
0.0844859
0.0851167
0.0856911
0.0862003
0.0866373
0.0869987
0.0872872
0.0875134
0.0877004
0.0878884
0.0881438
0.0885695
0.0893224
0.090536
0.0800594
0.0806202
0.0812203
0.0818528
0.0825033
0.0831606
0.0838138
0.0844507
0.0850593
0.0856281
0.0861483
0.0866155
0.0870322
0.0874105
0.0877762
0.0881741
0.0886762
0.089392
0.0904796
0.0920647
0.0796407
0.0799576
0.0804872
0.0811564
0.0819042
0.0826908
0.0834862
0.0842654
0.0850076
0.0856963
0.0863208
0.0868772
0.0873698
0.0878145
0.0882412
0.0886988
0.0892621
0.0900398
0.0911792
0.0927861
0.0777167
0.0788541
0.0800106
0.0811149
0.0821269
0.0830283
0.0838076
0.0844571
0.0849748
0.0853641
0.0856338
0.0857986
0.08588
0.0859045
0.0859071
0.08594
0.0860745
0.0864071
0.0870601
0.0881116
0.0748321
0.0765722
0.0778941
0.0787518
0.079195
0.0792983
0.0791323
0.0787594
0.0782328
0.0775964
0.0768869
0.0761358
0.0753728
0.0746284
0.0739331
0.0733079
0.0728031
0.0724826
0.0724246
0.0726713
0.0645384
0.0623854
0.0606727
0.0591727
0.0578051
0.056528
0.0553171
0.0541598
0.0530503
0.0519863
0.0509676
0.0499961
0.0490761
0.0482145
0.047422
0.0466902
0.0460402
0.0454987
0.0450995
0.0448587
0.00610171
0.0062635
0.00642867
0.00659368
0.00675585
0.00691346
0.00706552
0.00721148
0.00735105
0.00748411
0.00761075
0.0077312
0.00784583
0.00795514
0.0080597
0.00816082
0.00825913
0.00835543
0.00845072
0.0085451
0.00610166
0.00626357
0.00642919
0.00659513
0.00675878
0.0069185
0.00707328
0.00722252
0.00736582
0.00750295
0.00763383
0.00775854
0.00787732
0.00799051
0.00809857
0.00820202
0.00830162
0.00839882
0.00849443
0.00858901
0.0645477
0.0624098
0.0607334
0.0592944
0.0580071
0.0568232
0.0557129
0.0546589
0.0536518
0.0526862
0.0517602
0.0508742
0.050032
0.0492401
0.0485081
0.0478485
0.0472781
0.046792
0.0464168
0.0461673
0.0748706
0.0766871
0.0781381
0.0791649
0.0797962
0.0800902
0.0801078
0.0799056
0.0795344
0.0790377
0.078453
0.0778136
0.0771506
0.0764951
0.0758802
0.0753447
0.0749215
0.0746529
0.0745975
0.0747896
0.0778631
0.079211
0.0805817
0.0818799
0.0830584
0.0841001
0.0849993
0.0857556
0.0863737
0.0868626
0.0872352
0.0875088
0.0877062
0.0878567
0.0879985
0.0881757
0.0884469
0.0888907
0.0895981
0.090631
0.0801254
0.0807342
0.0813852
0.0820752
0.0827927
0.0835295
0.0842767
0.0850243
0.0857616
0.0864788
0.0871684
0.0878272
0.0884588
0.0890767
0.0897051
0.0903851
0.0911788
0.0921733
0.093477
0.0951722
0.0818333
0.0819145
0.0821374
0.0824658
0.082865
0.0833133
0.0837977
0.0843086
0.084838
0.0853782
0.0859228
0.0864683
0.0870163
0.0875765
0.0881701
0.0888349
0.0896311
0.0906476
0.0920019
0.0937928
0.0821841
0.0824902
0.0828076
0.0831439
0.083495
0.0838571
0.0842271
0.084602
0.0849782
0.0853509
0.0857157
0.0860698
0.0864147
0.0867591
0.0871223
0.0875392
0.0880669
0.0887922
0.0898353
0.0913059
0.082261
0.0826817
0.0831143
0.083551
0.0839811
0.084398
0.0847976
0.0851771
0.085533
0.0858613
0.0861574
0.086418
0.0866434
0.0868402
0.0870246
0.0872274
0.0875005
0.0879247
0.0886169
0.0896901
0.082275
0.0827237
0.0832004
0.0836935
0.0841863
0.0846667
0.0851259
0.0855571
0.0859539
0.0863095
0.0866171
0.0868709
0.0870689
0.0872148
0.0873212
0.0874148
0.0875421
0.0877777
0.088233
0.0890194
0.0822774
0.0827305
0.0832177
0.0837284
0.0842455
0.084755
0.0852464
0.0857108
0.0861397
0.0865242
0.0868552
0.0871252
0.0873299
0.0874708
0.0875583
0.0876161
0.0876874
0.0878429
0.0881903
0.0888388
0.0822774
0.0827305
0.0832177
0.0837284
0.0842455
0.084755
0.0852464
0.0857109
0.0861397
0.0865242
0.0868552
0.0871252
0.0873299
0.0874708
0.0875583
0.0876161
0.0876874
0.0878429
0.0881903
0.0888388
0.082275
0.0827237
0.0832004
0.0836935
0.0841863
0.0846667
0.0851259
0.0855571
0.085954
0.0863096
0.0866172
0.086871
0.087069
0.0872149
0.0873213
0.0874149
0.0875422
0.0877778
0.0882331
0.0890194
0.082261
0.0826817
0.0831144
0.083551
0.0839811
0.084398
0.0847976
0.0851771
0.0855331
0.0858614
0.0861575
0.0864181
0.0866435
0.0868403
0.0870247
0.0872275
0.0875006
0.0879248
0.0886169
0.0896901
0.0821841
0.0824903
0.0828078
0.0831441
0.0834952
0.0838573
0.0842272
0.0846022
0.0849783
0.085351
0.0857157
0.0860698
0.0864148
0.0867592
0.0871224
0.0875393
0.088067
0.0887923
0.0898353
0.0913059
0.0818333
0.0819144
0.0821374
0.0824659
0.0828651
0.0833135
0.0837979
0.0843088
0.0848381
0.0853783
0.0859229
0.0864684
0.0870165
0.0875767
0.0881703
0.0888352
0.0896315
0.090648
0.0920024
0.0937934
0.0801254
0.0807339
0.0813848
0.0820749
0.0827926
0.0835294
0.0842767
0.0850243
0.0857617
0.086479
0.0871686
0.0878274
0.0884592
0.0890772
0.0897057
0.0903859
0.0911798
0.0921745
0.0934785
0.0951742
0.077863
0.0792105
0.0805811
0.0818795
0.083058
0.0840998
0.0849991
0.0857555
0.0863737
0.0868628
0.0872355
0.0875094
0.087707
0.0878578
0.0879999
0.0881775
0.0884491
0.0888934
0.0896013
0.0906348
0.0748706
0.0766862
0.0781369
0.0791634
0.0797944
0.0800882
0.0801055
0.079903
0.0795315
0.0790346
0.0784499
0.0778106
0.0771478
0.0764926
0.0758782
0.0753431
0.0749206
0.0746528
0.0745982
0.0747911
0.0645478
0.062409
0.060733
0.0592951
0.058009
0.0568261
0.0557166
0.0546633
0.0536565
0.0526912
0.0517653
0.0508795
0.0500374
0.0492455
0.0485134
0.0478537
0.0472834
0.0467974
0.0464222
0.0461727
0.00610167
0.00626348
0.00642901
0.00659489
0.00675852
0.00691823
0.00707301
0.00722226
0.00736557
0.00750272
0.00763361
0.00775834
0.00787713
0.00799034
0.00809841
0.00820188
0.0083015
0.00839872
0.00849435
0.00858896
0.00610163
0.0062635
0.00642917
0.00659532
0.00675936
0.00691966
0.00707524
0.0072255
0.00737005
0.00750864
0.00764115
0.00776764
0.0078883
0.00800341
0.00811336
0.00821858
0.00831963
0.00841758
0.00851349
0.00860808
0.0645501
0.062412
0.0607403
0.0593163
0.0580547
0.0569059
0.0558389
0.0548348
0.0538824
0.052975
0.0521086
0.0512826
0.0504992
0.0497638
0.0490844
0.0484724
0.0479427
0.0475012
0.0471562
0.0469213
0.0748772
0.0767031
0.0781837
0.0792657
0.0799747
0.0803628
0.0804855
0.0803947
0.0801371
0.0797534
0.0792785
0.0787439
0.0781794
0.0776148
0.0770815
0.0766143
0.076253
0.0760301
0.0759837
0.0761455
0.0778901
0.0792892
0.0807452
0.0821573
0.0834663
0.0846455
0.0856819
0.0865717
0.0873176
0.0879285
0.0884176
0.0888031
0.0891085
0.0893637
0.0896059
0.0898808
0.0902426
0.0907502
0.0914756
0.0924738
0.0802373
0.0810083
0.0818261
0.0826686
0.0835178
0.0843643
0.085202
0.0860255
0.0868297
0.0876105
0.0883655
0.0890962
0.0898099
0.0905218
0.0912572
0.0920544
0.092966
0.0940635
0.095431
0.0971385
0.0822435
0.0825919
0.0829533
0.0833396
0.0837499
0.0841833
0.08464
0.0851203
0.0856239
0.0861498
0.0866972
0.087267
0.0878645
0.0885019
0.0892012
0.0899974
0.090943
0.0921116
0.0935946
0.0954748
0.0837595
0.0837348
0.0838105
0.083961
0.0841608
0.0843936
0.0846504
0.0849267
0.08522
0.0855292
0.0858536
0.086195
0.0865591
0.086958
0.087413
0.0879587
0.0886473
0.0895532
0.0907729
0.0924
0.0840582
0.0842342
0.0844082
0.0845892
0.0847757
0.0849647
0.0851541
0.0853429
0.0855304
0.0857156
0.0858978
0.0860778
0.08626
0.0864547
0.0866811
0.0869712
0.0873749
0.0879647
0.0888378
0.0900942
0.0841208
0.0843916
0.0846617
0.0849273
0.0851814
0.0854188
0.0856365
0.0858332
0.0860081
0.0861603
0.086289
0.0863943
0.0864795
0.0865535
0.0866335
0.0867495
0.0869484
0.0873006
0.0879022
0.0888564
0.0841316
0.0844252
0.0847298
0.0850376
0.0853365
0.0856168
0.085872
0.0860982
0.0862925
0.0864527
0.0865767
0.0866639
0.0867166
0.0867428
0.0867588
0.0867929
0.0868909
0.0871215
0.0875805
0.0883723
0.0841316
0.0844252
0.0847298
0.0850376
0.0853365
0.0856168
0.0858721
0.0860982
0.0862926
0.0864528
0.0865768
0.0866639
0.0867167
0.0867429
0.0867588
0.0867929
0.0868909
0.0871215
0.0875804
0.0883722
0.0841208
0.0843916
0.0846617
0.0849274
0.0851814
0.0854188
0.0856365
0.0858332
0.0860081
0.0861604
0.086289
0.0863943
0.0864795
0.0865535
0.0866336
0.0867495
0.0869484
0.0873005
0.0879021
0.0888563
0.0840583
0.0842343
0.0844083
0.0845894
0.0847759
0.0849648
0.0851542
0.085343
0.0855304
0.0857156
0.0858978
0.0860778
0.0862601
0.0864547
0.0866811
0.0869713
0.0873749
0.0879647
0.0888377
0.090094
0.0837595
0.0837348
0.0838104
0.083961
0.0841609
0.0843938
0.0846506
0.0849268
0.0852202
0.0855293
0.0858537
0.0861951
0.0865592
0.0869581
0.0874131
0.0879588
0.0886473
0.0895532
0.0907728
0.0923998
0.0822435
0.0825916
0.082953
0.0833394
0.0837497
0.0841832
0.08464
0.0851203
0.085624
0.0861499
0.0866973
0.0872671
0.0878647
0.088502
0.0892013
0.0899976
0.0909432
0.0921118
0.0935949
0.0954751
0.0802372
0.081008
0.0818257
0.0826684
0.0835176
0.0843642
0.0852019
0.0860255
0.0868298
0.0876106
0.0883657
0.0890965
0.0898102
0.0905222
0.0912577
0.0920551
0.0929669
0.0940646
0.0954324
0.0971402
0.0778901
0.0792888
0.0807447
0.0821568
0.0834659
0.0846451
0.0856817
0.0865716
0.0873177
0.0879286
0.0884179
0.0888036
0.0891093
0.0893648
0.0896072
0.0898825
0.0902447
0.0907528
0.0914787
0.0924774
0.0748772
0.0767022
0.0781824
0.0792642
0.0799729
0.0803608
0.0804832
0.0803921
0.0801343
0.0797503
0.0792754
0.0787409
0.0781767
0.0776124
0.0770795
0.0766127
0.076252
0.0760299
0.0759843
0.0761469
0.0645502
0.0624111
0.0607399
0.0593171
0.0580566
0.0569089
0.0558427
0.0548391
0.0538871
0.0529799
0.0521137
0.0512878
0.0505045
0.049769
0.0490895
0.0484774
0.0479477
0.0475063
0.0471613
0.0469264
0.00610164
0.0062634
0.00642899
0.00659508
0.0067591
0.00691939
0.00707497
0.00722524
0.00736981
0.00750841
0.00764095
0.00776746
0.00788813
0.00800325
0.00811321
0.00821846
0.00831952
0.00841749
0.00851342
0.00860805
0.00610162
0.00626347
0.00642916
0.00659541
0.00675964
0.00692023
0.00707621
0.00722699
0.0073722
0.00751157
0.00764497
0.00777245
0.00789414
0.0080103
0.00812126
0.00822742
0.00832923
0.00842722
0.00852258
0.00861635
0.0645512
0.062412
0.0607398
0.0593185
0.0580638
0.0569264
0.0558752
0.0548913
0.0539635
0.0530845
0.0522502
0.051459
0.0507126
0.0500152
0.0493738
0.0487982
0.048301
0.0478976
0.0475884
0.0473795
0.074879
0.0767038
0.0781876
0.0792824
0.0800152
0.0804378
0.0806046
0.0805664
0.0803687
0.0800503
0.0796445
0.0791811
0.0786879
0.0781927
0.0777241
0.0773131
0.0769943
0.0768053
0.076775
0.0769261
0.0778947
0.0793003
0.0807756
0.0822248
0.0835884
0.0848366
0.0859536
0.0869326
0.0877741
0.0884843
0.0890747
0.0895616
0.0899669
0.0903183
0.0906504
0.0910047
0.0914309
0.0919865
0.092723
0.0936934
0.0802572
0.081067
0.0819482
0.0828752
0.0838223
0.0847738
0.0857189
0.0866491
0.0875582
0.0884418
0.0892977
0.0901281
0.0909406
0.0917507
0.0925829
0.0934727
0.0944675
0.0956268