/*--------------------------------*- C++ -*----------------------------------*\
  =========                 |
  \\      /  F ield         | OpenFOAM: The Open Source CFD Toolbox
   \\    /   O peration     | Website:  https://openfoam.org
    \\  /    A nd           | Version:  10
     \\/     M anipulation  |
\*---------------------------------------------------------------------------*/
FoamFile
{
    format      ascii;
    class       volScalarField;
    location    "100";
    object      p;
}
// * * * * * * * * * * * * * * * * * * * * * * * * * * * * * * * * * * * * * //

dimensions      [1 -1 -2 0 0 0 0];

internalField   nonuniform List<scalar> 
112000
(
198092
197316
196730
196408
196188
195963
195697
195383
195018
194589
194073
193448
192686
191753
190600
189157
187317
184906
181607
176926
196541
196380
196183
196041
195912
195749
195530
195250
194909
194498
193998
193386
192635
191710
190564
189126
187289
184880
181579
176900
196727
196628
196477
196316
196146
195945
195695
195389
195026
194596
194081
193457
192695
191759
190601
189152
187304
184880
181558
176858
196721
196543
196341
196165
195994
195799
195559
195265
194913
194494
193988
193370
192613
191679
190521
189068
187213
184776
181429
176693
196704
196521
196330
196174
196021
195837
195602
195310
194957
194534
194022
193397
192631
191688
190519
189053
187178
184715
181331
176549
196685
196501
196308
196150
195994
195806
195568
195272
194916
194490
193975
193347
192577
191630
190454
188977
187087
184601
181185
176361
196668
196484
196292
196136
195982
195797
195560
195266
194911
194484
193968
193338
192565
191612
190427
188938
187032
184526
181081
176219
196655
196471
196280
196125
195971
195785
195548
195253
194896
194468
193949
193315
192538
191579
190387
188889
186971
184449
180982
176090
196645
196463
196272
196117
195964
195778
195541
195246
194889
194459
193939
193304
192524
191561
190366
188862
186936
184402
180921
176008
196641
196458
196268
196113
195960
195775
195537
195242
194884
194454
193933
193297
192515
191551
190353
188846
186915
184376
180886
175963
196641
196458
196268
196113
195960
195774
195537
195242
194884
194454
193933
193296
192515
191551
190353
188846
186915
184376
180886
175963
196645
196462
196272
196117
195964
195778
195541
195246
194889
194459
193939
193304
192524
191561
190366
188862
186936
184402
180921
176008
196654
196471
196280
196124
195971
195785
195548
195253
194896
194468
193949
193315
192538
191579
190387
188889
186971
184449
180982
176090
196667
196484
196292
196136
195982
195796
195560
195266
194911
194484
193968
193338
192565
191612
190427
188939
187032
184526
181081
176218
196684
196501
196308
196150
195994
195806
195568
195272
194916
194490
193974
193346
192577
191630
190454
188977
187087
184601
181185
176360
196704
196521
196330
196174
196021
195837
195602
195310
194957
194534
194022
193397
192631
191688
190519
189053
187178
184715
181330
176548
196720
196542
196340
196164
195994
195799
195559
195265
194913
194494
193988
193370
192613
191679
190521
189068
187213
184776
181428
176693
196726
196627
196476
196316
196145
195944
195695
195389
195025
194595
194081
193457
192695
191759
190601
189152
187303
184880
181558
176858
196540
196379
196182
196040
195911
195749
195530
195250
194909
194497
193998
193386
192635
191710
190563
189125
187289
184880
181579
176900
198092
197315
196729
196408
196188
195963
195696
195383
195018
194588
194073
193448
192686
191753
190600
189157
187316
184906
181608
176927
196578
196417
196220
196078
195951
195790
195573
195298
194964
194560
194072
193474
192743
191845
190739
189361
187624
185396
182477
178651
195189
195411
195582
195653
195638
195549
195386
195150
194842
194458
193985
193400
192677
191785
190681
189302
187561
185325
182391
178562
195365
195639
195837
195896
195847
195724
195532
195271
194943
194541
194052
193454
192719
191815
190697
189304
187547
185291
182330
178482
195328
195557
195710
195752
195705
195590
195408
195158
194839
194446
193963
193370
192637
191733
190612
189213
187445
185173
182187
178308
195300
195537
195698
195753
195719
195613
195435
195186
194866
194470
193982
193381
192641
191728
190596
189183
187396
185099
182078
178160
195277
195516
195678
195730
195693
195584
195404
195153
194830
194431
193940
193336
192591
191672
190532
189107
187304
184984
181931
177975
195257
195498
195662
195715
195680
195572
195394
195143
194821
194420
193928
193321
192573
191648
190499
189063
187244
184902
181821
177830
195243
195485
195650
195704
195669
195561
195382
195131
194807
194404
193909
193299
192547
191616
190460
189014
187183
184824
181721
177703
195234
195476
195642
195697
195662
195554
195374
195123
194798
194395
193899
193287
192531
191597
190437
188985
187145
184776
181657
177620
195229
195471
195638
195693
195658
195550
195370
195119
194794
194390
193893
193280
192523
191587
190424
188969
187124
184749
181623
177575
195229
195471
195638
195693
195658
195550
195370
195119
194794
194390
193893
193280
192523
191587
190424
188969
187124
184749
181623
177575
195233
195476
195642
195697
195662
195553
195374
195123
194798
194395
193899
193287
192531
191597
190437
188985
187145
184776
181657
177619
195243
195485
195650
195704
195669
195561
195382
195130
194807
194404
193909
193299
192547
191616
190460
189014
187183
184824
181721
177702
195257
195498
195662
195715
195680
195572
195394
195143
194821
194420
193928
193321
192573
191648
190499
189063
187243
184902
181820
177830
195276
195516
195677
195729
195693
195584
195404
195153
194830
194430
193939
193335
192591
191672
190532
189107
187304
184983
181930
177974
195300
195536
195698
195752
195719
195612
195435
195186
194866
194469
193982
193381
192641
191728
190596
189183
187396
185099
182077
178160
195328
195557
195709
195751
195705
195590
195408
195158
194839
194445
193963
193369
192637
191733
190612
189213
187445
185173
182186
178308
195364
195638
195837
195895
195847
195723
195532
195271
194942
194540
194052
193454
192719
191815
190696
189304
187546
185291
182330
178482
195188
195410
195581
195652
195638
195549
195386
195149
194841
194458
193984
193400
192678
191786
190680
189302
187561
185325
182392
178562
196577
196416
196219
196077
195950
195789
195573
195298
194963
194560
194071
193475
192743
191846
190738
189360
187623
185396
182478
178652
196831
196732
196582
196425
196261
196070
195834
195547
195208
194809
194334
193762
193068
192224
191194
189931
188369
186420
183967
180914
195436
195710
195910
195971
195928
195812
195631
195384
195074
194695
194236
193675
192989
192150
191122
189856
188288
186327
183855
180789
196155
196165
196250
196248
196147
195980
195759
195481
195145
194745
194268
193693
192994
192142
191099
189818
188231
186248
183745
180653
196081
196070
196102
196088
195997
195843
195633
195366
195039
194647
194176
193604
192906
192052
191005
189716
188117
186115
183583
180462
196012
196056
196106
196098
196014
195865
195656
195387
195056
194658
194180
193600
192893
192029
190970
189666
188047
186020
183455
180297
195976
196039
196094
196079
195988
195836
195625
195353
195020
194619
194137
193553
192841
191971
190903
189586
187950
185899
183305
180112
195951
196020
196080
196066
195975
195823
195613
195342
195008
194605
194120
193533
192817
191939
190862
189533
187880
185809
183186
179961
195934
196005
196069
196056
195965
195811
195601
195329
194993
194588
194101
193510
192789
191906
190821
189482
187817
185728
183083
179833
195923
195996
196062
196050
195958
195804
195593
195320
194984
194578
194089
193496
192772
191885
190796
189450
187776
185676
183016
179747
195917
195990
196058
196046
195954
195800
195589
195316
194979
194572
194082
193488
192763
191874
190782
189433
187754
185648
182980
179702
195917
195990
196058
196046
195954
195800
195589
195316
194979
194572
194082
193488
192763
191874
190782
189433
187754
185648
182980
179702
195923
195995
196061
196050
195958
195804
195593
195320
194984
194578
194089
193496
192772
191885
190796
189450
187776
185676
183016
179747
195934
196005
196069
196056
195964
195811
195600
195328
194993
194588
194101
193510
192789
191906
190821
189482
187817
185728
183083
179832
195951
196020
196080
196066
195975
195823
195613
195342
195008
194605
194120
193533
192816
191939
190862
189533
187880
185808
183185
179961
195975
196038
196093
196078
195988
195836
195625
195353
195020
194619
194136
193553
192841
191971
190903
189586
187949
185899
183304
180112
196011
196056
196106
196097
196013
195864
195656
195386
195056
194658
194179
193600
192893
192029
190971
189666
188047
186019
183455
180297
196080
196070
196102
196087
195996
195842
195633
195366
195039
194647
194176
193604
192906
192053
191006
189716
188117
186115
183583
180461
196154
196165
196250
196248
196147
195980
195758
195481
195145
194745
194268
193693
192995
192142
191099
189818
188231
186248
183745
180653
195435
195710
195909
195970
195928
195812
195631
195384
195073
194695
194235
193675
192990
192150
191122
189856
188288
186327
183855
180790
196831
196731
196581
196424
196260
196069
195833
195546
195207
194808
194334
193762
193068
192224
191194
189930
188368
186419
183967
180915
196921
196744
196546
196381
196226
196055
195845
195591
195291
194938
194515
194004
193384
192633
191724
190622
189283
187653
185671
183302
195499
195729
195887
195939
195909
195815
195661
195448
195175
194840
194431
193931
193319
192573
191665
190562
189217
187578
185580
183199
196186
196176
196212
196205
196124
195984
195793
195548
195250
194894
194467
193952
193326
192566
191644
190524
189161
187499
185472
183062
196502
196243
196130
196081
196001
195870
195687
195452
195161
194810
194388
193875
193250
192487
191559
190430
189053
187370
185315
182874
196392
196215
196118
196077
196009
195886
195706
195469
195174
194817
194387
193866
193231
192458
191517
190372
188975
187268
185181
182705
196320
196201
196120
196068
195990
195862
195679
195439
195141
194780
194346
193820
193180
192400
191450
190292
188878
187149
185033
182525
196284
196184
196114
196060
195977
195849
195666
195426
195127
194764
194326
193796
193151
192364
191404
190233
188803
187053
184910
182374
196261
196168
196105
196052
195968
195837
195653
195412
195111
194746
194306
193772
193121
192328
191361
190180
188737
186970
184807
182246
196247
196157
196098
196047
195961
195830
195645
195403
195101
194735
194293
193756
193103
192306
191333
190146
188693
186915
184737
182160
196240
196151
196094
196044
195958
195826
195641
195399
195096
194729
194286
193748
193093
192294
191319
190128
188671
186886
184700
182115
196240
196151
196094
196044
195958
195826
195641
195399
195096
194729
194286
193748
193093
192294
191319
190128
188671
186886
184700
182115
196247
196157
196098
196047
195961
195829
195645
195403
195101
194735
194293
193756
193103
192306
191333
190146
188693
186915
184737
182160
196260
196168
196104
196052
195967
195837
195653
195412
195111
194746
194306
193772
193121
192328
191361
190180
188737
186970
184806
182246
196283
196184
196113
196059
195977
195849
195666
195426
195126
194764
194326
193796
193151
192364
191404
190233
188803
187053
184910
182373
196320
196201
196119
196068
195990
195862
195679
195439
195141
194780
194346
193820
193180
192400
191450
190292
188878
187149
185033
182525
196392
196214
196118
196077
196009
195886
195706
195468
195174
194817
194387
193866
193231
192458
191518
190372
188975
187268
185180
182705
196501
196243
196130
196081
196001
195870
195687
195451
195161
194810
194388
193875
193250
192487
191559
190430
189053
187370
185314
182873
196185
196176
196212
196204
196124
195984
195792
195548
195250
194893
194467
193952
193326
192566
191644
190524
189161
187499
185471
183061
195498
195728
195886
195938
195908
195814
195661
195447
195175
194840
194431
193931
193319
192573
191665
190561
189217
187578
185580
183199
196920
196743
196546
196380
196226
196054
195845
195591
195291
194937
194515
194004
193384
192633
191724
190622
189283
187653
185671
183303
197024
196844
196662
196525
196400
196256
196073
195848
195581
195267
194891
194440
193898
193247
192469
191539
190429
189111
187556
185760
195591
195831
196003
196077
196072
196004
195876
195692
195453
195159
194799
194361
193828
193183
192408
191478
190366
189041
187475
185666
196243
196289
196348
196355
196295
196177
196009
195791
195524
195207
194829
194376
193830
193172
192383
191439
190310
188965
187374
185537
196524
196347
196254
196222
196167
196062
195904
195696
195437
195126
194752
194301
193755
193096
192302
191349
190207
188845
187228
185362
196723
196444
196291
196242
196188
196086
195927
195714
195449
195131
194749
194290
193735
193065
192259
191291
190131
188745
187099
185200
196614
196416
196279
196222
196162
196057
195898
195683
195416
195093
194708
194244
193684
193008
192193
191212
190036
188630
186958
185030
196545
196401
196284
196221
196154
196046
195886
195671
195401
195075
194686
194218
193652
192969
192144
191151
189959
188533
186838
184884
196511
196386
196281
196217
196145
196034
195873
195656
195384
195056
194663
194191
193621
192931
192099
191096
189891
188450
186735
184760
196492
196373
196276
196214
196139
196026
195864
195647
195374
195044
194649
194174
193601
192907
192069
191060
189846
188394
186665
184675
196483
196366
196273
196212
196136
196023
195859
195642
195368
195038
194641
194165
193590
192894
192054
191041
189823
188364
186628
184630
196483
196366
196273
196212
196136
196022
195859
195642
195368
195038
194641
194165
193590
192894
192054
191041
189823
188364
186628
184630
196492
196373
196276
196213
196139
196026
195864
195647
195374
195044
194649
194174
193601
192907
192069
191060
189846
188393
186665
184675
196511
196385
196281
196217
196144
196034
195872
195656
195384
195056
194663
194191
193621
192931
192099
191096
189891
188450
186735
184760
196544
196400
196284
196221
196154
196046
195886
195671
195401
195075
194686
194218
193652
192969
192144
191151
189959
188533
186838
184883
196613
196415
196278
196221
196161
196057
195898
195683
195416
195093
194708
194244
193684
193008
192193
191212
190036
188630
186958
185030
196723
196443
196290
196241
196188
196085
195927
195714
195449
195130
194749
194289
193735
193065
192259
191291
190130
188744
187099
185200
196523
196346
196254
196222
196167
196061
195904
195695
195437
195125
194752
194301
193755
193096
192302
191349
190207
188844
187228
185362
196242
196288
196347
196355
196294
196177
196008
195790
195524
195207
194829
194376
193830
193172
192383
191439
190310
188965
187373
185537
195591
195830
196002
196076
196071
196003
195876
195692
195453
195158
194799
194361
193828
193184
192408
191478
190366
189041
187475
185666
197023
196843
196661
196524
196400
196255
196072
195848
195581
195266
194891
194440
193898
193247
192469
191538
190429
189111
187556
185760
197145
196966
196788
196659
196546
196418
196257
196062
195833
195567
195251
194875
194427
193893
193261
192516
191641
190624
189455
188145
195708
195953
196131
196213
196220
196170
196066
195913
195713
195467
195168
194805
194366
193838
193209
192464
191588
190566
189389
188066
196350
196417
196487
196498
196447
196346
196203
196016
195789
195521
195204
194827
194375
193834
193192
192434
191542
190503
189304
187955
196600
196483
196411
196379
196330
196241
196108
195930
195711
195449
195137
194762
194311
193769
193123
192357
191455
190400
189179
187804
196767
196570
196439
196392
196348
196265
196132
195952
195727
195458
195138
194756
194296
193745
193088
192309
191390
190313
189067
187662
196920
196649
196468
196392
196334
196244
196109
195926
195697
195424
195100
194714
194251
193695
193029
192239
191305
190211
188943
187511
196818
196621
196461
196382
196319
196229
196095
195912
195682
195406
195078
194688
194219
193656
192983
192181
191233
190121
188832
187378
196755
196607
196468
196386
196315
196220
196083
195898
195666
195387
195056
194661
194188
193619
192938
192127
191168
190042
188736
187263
196727
196595
196468
196385
196309
196212
196074
195888
195655
195374
195041
194643
194167
193594
192908
192091
191123
189987
188668
187183
196715
196588
196466
196384
196307
196208
196069
195883
195649
195367
195033
194634
194156
193581
192892
192071
191099
189958
188633
187140
196715
196588
196466
196384
196307
196208
196069
195883
195649
195367
195032
194634
194156
193581
192892
192071
191099
189958
188633
187140
196727
196595
196468
196385
196309
196211
196074
195888
195655
195374
195041
194643
194167
193594
192908
192091
191123
189987
188668
187182
196755
196606
196468
196385
196314
196220
196083
195898
195666
195387
195056
194661
194188
193619
192938
192127
191168
190042
188736
187263
196817
196620
196461
196382
196319
196229
196095
195912
195682
195406
195078
194688
194219
193657
192983
192181
191233
190121
188832
187377
196919
196648
196468
196392
196333
196244
196109
195925
195697
195424
195100
194714
194251
193695
193030
192239
191305
190211
188942
187511
196767
196569
196438
196391
196347
196264
196132
195952
195727
195458
195138
194755
194296
193746
193088
192309
191389
190313
189067
187661
196599
196482
196411
196379
196329
196240
196107
195930
195711
195449
195137
194762
194311
193769
193123
192357
191455
190400
189179
187803
196350
196416
196486
196498
196446
196346
196202
196016
195789
195521
195204
194827
194375
193835
193193
192434
191542
190503
189303
187954
195707
195952
196130
196212
196219
196169
196066
195913
195713
195467
195168
194805
194366
193839
193209
192464
191588
190566
189388
188065
197144
196965
196787
196658
196546
196417
196257
196062
195833
195566
195251
194875
194427
193893
193261
192516
191641
190624
189455
188145
197284
197108
196937
196821
196727
196623
196494
196336
196152
195940
195692
195396
195046
194632
194147
193582
192932
192190
191360
190455
195845
196094
196281
196375
196401
196374
196301
196185
196030
195839
195607
195325
194984
194577
194095
193533
192881
192137
191301
190386
196484
196560
196641
196665
196630
196552
196439
196290
196108
195894
195644
195347
194994
194575
194082
193507
192842
192083
191228
190291
196726
196630
196575
196552
196516
196449
196346
196207
196033
195826
195580
195287
194936
194516
194020
193440
192766
191994
191122
190162
196865
196723
196618
196577
196543
196480
196377
196234
196054
195840
195587
195286
194927
194500
193994
193401
192713
191923
191030
190044
196989
196793
196639
196572
196526
196460
196356
196211
196028
195810
195554
195250
194888
194457
193945
193343
192643
191838
190926
189918
197119
196859
196669
196580
196522
196451
196346
196200
196015
195794
195534
195227
194861
194424
193904
193293
192581
191761
190832
189805
197027
196833
196664
196574
196512
196438
196333
196186
195999
195775
195511
195201
194831
194389
193864
193245
192523
191692
190748
189705
196974
196823
196673
196579
196510
196433
196325
196177
195989
195763
195497
195183
194811
194365
193835
193211
192482
191642
190688
189634
196955
196818
196675
196580
196508
196428
196320
196172
195983
195756
195488
195174
194799
194352
193820
193192
192459
191615
190656
189597
196955
196818
196675
196580
196508
196428
196320
196172
195983
195756
195488
195174
194799
194352
193820
193192
192459
191615
190656
189597
196974
196823
196673
196579
196510
196432
196325
196177
195989
195763
195497
195183
194810
194365
193835
193211
192482
191641
190688
189634
197027
196833
196664
196574
196511
196438
196332
196186
195999
195775
195511
195201
194831
194389
193864
193245
192523
191691
190748
189705
197118
196859
196668
196579
196522
196451
196346
196200
196015
195794
195534
195227
194861
194424
193904
193293
192581
191761
190832
189804
196989
196792
196639
196571
196526
196460
196355
196210
196028
195810
195553
195250
194888
194457
193945
193343
192643
191838
190925
189917
196864
196722
196617
196576
196542
196480
196377
196234
196054
195840
195586
195286
194927
194500
193994
193401
192713
191923
191029
190043
196725
196629
196575
196552
196516
196449
196346
196206
196033
195825
195580
195287
194936
194517
194021
193440
192766
191994
191122
190162
196484
196559
196640
196664
196629
196552
196439
196289
196107
195894
195643
195347
194994
194575
194082
193507
192842
192082
191228
190290
195844
196093
196280
196374
196400
196374
196301
196185
196030
195839
195607
195325
194984
194577
194095
193532
192881
192137
191300
190385
197283
197107
196936
196820
196726
196623
196493
196335
196152
195940
195692
195396
195046
194632
194147
193582
192932
192190
191360
190455
197439
197265
197103
197000
196924
196844
196744
196623
196486
196331
196150
195938
195687
195394
195056
194668
194230
193741
193209
192649
195998
196250
196446
196554
196598
196595
196552
196474
196366
196232
196068
195869
195629
195343
195009
194623
194185
193694
193158
192589
196637
196717
196809
196847
196829
196775
196692
196580
196445
196289
196107
195895
195643
195346
195001
194604
194154
193650
193098
192511
196875
196788
196748
196739
196719
196674
196602
196501
196374
196224
196049
195840
195591
195295
194948
194547
194090
193577
193012
192406
197007
196885
196799
196770
196749
196708
196636
196532
196400
196243
196060
195845
195589
195287
194931
194521
194051
193523
192940
192313
197107
196960
196834
196776
196741
196695
196621
196514
196379
196219
196034
195817
195559
195253
194894
194476
193997
193457
192860
192215
197212
197019
196856
196778
196734
196686
196613
196507
196370
196208
196019
195799
195539
195229
194864
194439
193951
193399
192788
192128
197330
197079
196884
196787
196733
196679
196604
196496
196357
196192
196000
195777
195514
195201
194831
194400
193905
193344
192723
192050
197252
197059
196882
196784
196725
196670
196595
196487
196347
196180
195986
195761
195496
195181
194808
194372
193871
193304
192675
191994
197213
197056
196891
196789
196726
196668
196592
196483
196343
196174
195979
195752
195486
195169
194795
194357
193853
193282
192648
191963
197213
197056
196891
196789
196726
196668
196591
196483
196343
196174
195979
195752
195486
195169
194795
194357
193853
193282
192648
191963
197252
197059
196882
196784
196725
196670
196595
196487
196347
196180
195986
195761
195496
195181
194808
194372
193871
193304
192674
191994
197329
197079
196884
196787
196732
196679
196603
196496
196357
196191
196000
195777
195514
195201
194832
194400
193905
193344
192722
192050
197211
197019
196856
196778
196734
196686
196613
196507
196370
196207
196019
195799
195538
195229
194864
194439
193951
193399
192788
192127
197106
196960
196833
196775
196740
196694
196620
196514
196379
196219
196034
195816
195559
195254
194894
194476
193997
193457
192860
192215
197006
196885
196798
196769
196749
196708
196636
196531
196399
196243
196060
195845
195589
195287
194932
194521
194051
193523
192940
192313
196874
196788
196747
196738
196718
196674
196602
196500
196374
196224
196048
195840
195591
195295
194948
194548
194090
193577
193011
192405
196636
196716
196809
196846
196829
196775
196691
196580
196445
196288
196107
195895
195643
195346
195001
194604
194154
193650
193098
192510
195997
196250
196445
196554
196597
196595
196552
196474
196366
196231
196068
195869
195629
195343
195009
194623
194185
193694
193158
192589
197438
197265
197102
196999
196923
196843
196744
196623
196486
196330
196150
195938
195687
195394
195056
194668
194230
193741
193209
192649
197605
197435
197280
197191
197134
197079
197011
196930
196841
196744
196634
196505
196355
196182
195986
195767
195525
195265
194994
194726
196164
196419
196624
196746
196808
196830
196819
196780
196721
196645
196552
196437
196298
196132
195941
195724
195483
195222
194948
194674
196803
196887
196988
197040
197041
197011
196960
196888
196801
196703
196593
196465
196314
196139
195937
195710
195459
195187
194900
194611
197040
196958
196929
196935
196933
196913
196872
196811
196733
196642
196538
196414
196268
196094
195892
195663
195407
195128
194831
194528
197170
197057
196985
196970
196967
196949
196909
196845
196762
196665
196554
196425
196273
196093
195884
195647
195381
195091
194781
194461
197264
197136
197028
196982
196962
196939
196897
196831
196746
196647
196534
196404
196251
196070
195858
195616
195344
195045
194724
194392
197348
197200
197062
196994
196963
196937
196895
196830
196743
196641
196526
196394
196239
196056
195841
195593
195314
195007
194677
194333
197445
197254
197083
196997
196958
196930
196888
196822
196734
196630
196512
196378
196222
196037
195819
195568
195284
194970
194633
194281
197562
197313
197109
197006
196959
196926
196883
196817
196728
196622
196502
196367
196209
196023
195804
195550
195262
194944
194602
194243
197507
197299
197104
197002
196954
196922
196879
196813
196724
196617
196496
196360
196202
196015
195795
195539
195250
194929
194584
194222
197507
197299
197104
197002
196954
196922
196879
196813
196724
196617
196496
196360
196202
196015
195795
195539
195250
194929
194584
194222
197562
197313
197109
197006
196959
196926
196883
196817
196728
196622
196502
196367
196209
196023
195804
195550
195262
194944
194602
194243
197445
197254
197083
196997
196958
196930
196888
196822
196734
196630
196512
196378
196222
196037
195820
195568
195284
194970
194633
194280
197347
197199
197061
196993
196962
196937
196895
196830
196743
196641
196526
196394
196239
196056
195841
195593
195314
195007
194677
194333
197263
197135
197027
196981
196962
196938
196897
196831
196746
196647
196533
196403
196251
196070
195859
195616
195344
195044
194724
194391
197169
197056
196984
196970
196966
196949
196909
196845
196762
196665
196554
196425
196273
196093
195885
195647
195381
195090
194780
194461
197040
196958
196929
196934
196932
196912
196872
196810
196733
196642
196537
196414
196268
196094
195892
195663
195407
195127
194831
194527
196802
196886
196988
197040
197041
197011
196959
196888
196801
196703
196593
196465
196315
196139
195937
195710
195459
195187
194900
194611
196163
196419
196623
196745
196807
196830
196819
196780
196720
196645
196551
196437
196298
196133
195941
195724
195483
195222
194948
194674
197604
197434
197279
197190
197133
197078
197010
196929
196840
196743
196633
196505
196355
196183
195986
195767
195525
195265
194994
194726
197780
197613
197466
197390
197352
197322
197285
197244
197203
197165
197124
197079
197028
196971
196911
196849
196789
196735
196694
196678
196337
196596
196809
196945
197026
197073
197094
197095
197084
197067
197043
197012
196972
196923
196868
196809
196751
196696
196654
196633
196978
197065
197175
197240
197260
197256
197236
197204
197166
197126
197086
197042
196991
196933
196868
196801
196734
196671
196618
196585
197216
197137
197117
197137
197154
197159
197150
197129
197100
197068
197034
196996
196949
196894
196830
196762
196693
196625
196566
196524
197345
197237
197175
197175
197190
197197
197189
197166
197132
197095
197055
197011
196960
196900
196832
196758
196681
196605
196536
196482
197438
197318
197222
197190
197188
197190
197180
197156
197121
197081
197041
196997
196946
196887
196817
196741
196660
196579
196504
196441
197519
197386
197263
197207
197192
197191
197182
197159
197123
197082
197039
196995
196944
196883
196812
196733
196647
196561
196481
196411
197601
197446
197294
197218
197194
197190
197181
197157
197120
197077
197033
196987
196936
196876
196804
196722
196634
196545
196460
196385
197705
197498
197310
197221
197193
197187
197179
197155
197118
197074
197029
196983
196931
196871
196798
196716
196626
196535
196447
196368
197847
197555
197325
197223
197192
197186
197177
197153
197115
197071
197025
196979
196928
196867
196795
196712
196622
196529
196439
196359
197847
197555
197325
197223
197192
197186
197177
197153
197115
197071
197025
196979
196928
196867
196795
196712
196622
196529
196439
196359
197705
197498
197310
197220
197193
197187
197179
197155
197118
197074
197029
196982
196931
196871
196798
196716
196626
196534
196447
196368
197600
197445
197293
197218
197194
197190
197181
197157
197120
197077
197033
196987
196936
196876
196804
196722
196634
196545
196460
196385
197518
197386
197263
197206
197192
197190
197182
197158
197122
197081
197039
196995
196944
196883
196812
196733
196647
196561
196480
196411
197438
197317
197221
197190
197188
197189
197180
197156
197121
197081
197041
196997
196947
196887
196818
196741
196660
196578
196503
196441
197345
197236
197174
197175
197190
197197
197189
197165
197132
197095
197055
197011
196960
196901
196832
196758
196681
196605
196536
196482
197215
197137
197117
197136
197153
197158
197149
197128
197100
197068
197034
196996
196949
196894
196831
196762
196693
196625
196566
196523
196977
197064
197174
197240
197260
197255
197235
197204
197166
197126
197086
197042
196991
196933
196868
196801
196734
196670
196618
196585
196337
196596
196808
196944
197025
197073
197094
197095
197084
197066
197043
197012
196972
196923
196868
196809
196751
196696
196654
196633
197779
197612
197465
197389
197351
197321
197285
197244
197203
197164
197124
197079
197028
196971
196911
196849
196789
196735
196694
196677
197959
197794
197655
197591
197572
197567
197562
197560
197567
197586
197614
197650
197693
197748
197816
197901
198008
198140
198303
198505
196515
196777
196998
197147
197247
197319
197372
197412
197448
197488
197534
197584
197639
197701
197775
197864
197973
198106
198268
198467
197157
197247
197364
197443
197482
197502
197514
197521
197531
197550
197579
197616
197661
197714
197779
197861
197963
198089
198244
198434
197397
197321
197308
197341
197376
197406
197430
197448
197467
197494
197530
197573
197623
197681
197749
197831
197933
198057
198208
198394
197528
197422
197367
197380
197414
197447
197471
197488
197503
197524
197555
197594
197641
197695
197759
197838
197935
198053
198199
198377
197623
197505
197416
197398
197415
197442
197465
197481
197495
197516
197546
197586
197635
197690
197756
197834
197929
198046
198189
198363
197707
197576
197460
197417
197421
197446
197471
197488
197502
197521
197551
197591
197641
197697
197762
197840
197933
198048
198189
198360
197792
197639
197494
197431
197427
197449
197473
197491
197504
197522
197551
197592
197642
197700
197766
197843
197936
198050
198190
198358
197900
197695
197513
197437
197429
197450
197475
197494
197507
197525
197553
197594
197645
197704
197770
197848
197941
198055
198193
198359
198045
197755
197531
197442
197431
197451
197477
197495
197508
197526