/*--------------------------------*- C++ -*----------------------------------*\
  =========                 |
  \\      /  F ield         | OpenFOAM: The Open Source CFD Toolbox
   \\    /   O peration     | Website:  https://openfoam.org
    \\  /    A nd           | Version:  10
     \\/     M anipulation  |
\*---------------------------------------------------------------------------*/
FoamFile
{
    format      ascii;
    class       surfaceScalarField;
    location    "100";
    object      phi;
}
// * * * * * * * * * * * * * * * * * * * * * * * * * * * * * * * * * * * * * //

dimensions      [1 0 -1 0 0 0 0];

internalField   nonuniform List<scalar> 
324400
(
0.00100255
-3.6111e-06
-4.20083e-06
0.00100309
3.32216e-07
-8.73026e-07
0.00100325
8.31265e-07
-9.75803e-07
0.0010033
1.19537e-06
-1.23004e-06
0.00100336
1.51305e-06
-1.56708e-06
0.00100373
1.71715e-06
-2.07747e-06
0.00100471
1.81493e-06
-2.77851e-06
0.00100653
1.84739e-06
-3.6573e-06
0.0010094
1.84881e-06
-4.71356e-06
0.00101355
1.83496e-06
-5.97592e-06
0.00101924
1.80956e-06
-7.49634e-06
0.00102682
1.77476e-06
-9.34533e-06
0.00103671
1.73615e-06
-1.16177e-05
0.00104946
1.70218e-06
-1.44501e-05
0.00106583
1.6824e-06
-1.80531e-05
0.00108692
1.68793e-06
-2.27729e-05
0.00111441
1.73501e-06
-2.9221e-05
0.00115114
1.85222e-06
-3.85786e-05
0.00120242
2.11944e-06
-5.33959e-05
2.37299e-06
-7.91851e-05
0.00127924
0.000996278
-2.15076e-06
-1.07818e-05
0.0010018
6.05284e-07
-5.78019e-06
0.00100586
1.60547e-06
-4.81797e-06
0.00100979
1.91413e-06
-4.63282e-06
0.00101389
2.14239e-06
-4.70101e-06
0.00101829
2.326e-06
-4.99612e-06
0.00102319
2.44838e-06
-5.51937e-06
0.00102879
2.52703e-06
-6.25585e-06
0.00103526
2.58933e-06
-7.19999e-06
0.00104282
2.65246e-06
-8.36976e-06
0.00105173
2.72209e-06
-9.80778e-06
0.00106229
2.80137e-06
-1.15786e-05
0.00107491
2.89799e-06
-1.37713e-05
0.00109011
3.02556e-06
-1.6515e-05
0.0011086
3.20234e-06
-2.00089e-05
0.00113143
3.45123e-06
-2.45808e-05
0.00116018
3.80319e-06
-3.08105e-05
0.00119755
4.30475e-06
-3.98195e-05
0.00124872
5.04044e-06
-5.40864e-05
6.0072e-06
-7.8828e-05
0.00132392
0.000996614
-6.22553e-09
-1.0865e-05
0.00100347
6.86896e-07
-6.92833e-06
0.00100981
1.26632e-06
-5.97835e-06
0.00101589
1.52329e-06
-5.66794e-06
0.00102199
1.67624e-06
-5.61251e-06
0.00102828
1.81848e-06
-5.76244e-06
0.00103492
1.95349e-06
-6.13019e-06
0.00104209
2.08204e-06
-6.71811e-06
0.00105001
2.21536e-06
-7.52545e-06
0.00105887
2.36644e-06
-8.56923e-06
0.00106895
2.54485e-06
-9.89103e-06
0.00108055
2.75844e-06
-1.15541e-05
0.00109409
3.01818e-06
-1.36456e-05
0.00111007
3.34142e-06
-1.6291e-05
0.00112921
3.75279e-06
-1.96832e-05
0.00115252
4.28506e-06
-2.4141e-05
0.00118158
4.98229e-06
-3.02316e-05
0.00121904
5.90663e-06
-3.90559e-05
0.00127
7.15671e-06
-5.30753e-05
8.78604e-06
-7.74511e-05
0.00134467
0.000998371
2.61588e-07
-1.07732e-05
0.00100568
6.71605e-07
-7.27853e-06
0.00101246
1.1487e-06
-6.63979e-06
0.00101899
1.54806e-06
-6.53849e-06
0.00102551
1.86537e-06
-6.68784e-06
0.00103223
2.14345e-06
-7.02628e-06
0.00103934
2.40006e-06
-7.54495e-06
0.00104704
2.64275e-06
-8.24047e-06
0.00105549
2.88149e-06
-9.11351e-06
0.00106492
3.12984e-06
-1.01848e-05
0.00107558
3.40265e-06
-1.15006e-05
0.00108776
3.71469e-06
-1.31283e-05
0.00110186
4.08233e-06
-1.51579e-05
0.00111839
4.52696e-06
-1.77153e-05
0.00113807
5.07771e-06
-2.09926e-05
0.00116189
5.77335e-06
-2.53054e-05
0.00119143
6.66463e-06
-3.12165e-05
0.00122934
7.81764e-06
-3.98183e-05
0.00128074
9.31968e-06
-5.35642e-05
1.12152e-05
-7.76082e-05
0.00135593
0.000998326
3.10892e-07
-1.05907e-05
0.00100542
6.77657e-07
-7.08467e-06
0.00101201
1.03843e-06
-6.45711e-06
0.0010185
1.36043e-06
-6.2835e-06
0.00102509
1.62759e-06
-6.33221e-06
0.00103197
1.85978e-06
-6.57356e-06
0.00103931
2.07574e-06
-7.00022e-06
0.00104728
2.28802e-06
-7.60775e-06
0.00105607
2.5081e-06
-8.39846e-06
0.00106585
2.74901e-06
-9.39453e-06
0.00107688
3.02543e-06
-1.06419e-05
0.00108946
3.3528e-06
-1.22063e-05
0.00110397
3.74789e-06
-1.41751e-05
0.00112095
4.23156e-06
-1.6671e-05
0.00114108
4.83191e-06
-1.98825e-05
0.00116539
5.58665e-06
-2.41217e-05
0.00119547
6.54468e-06
-2.99472e-05
0.00123397
7.7676e-06
-3.84467e-05
0.00128603
9.33161e-06
-5.20682e-05
1.12917e-05
-7.59635e-05
0.00136192
0.000998232
2.74328e-07
-1.05059e-05
0.00100533
5.83329e-07
-6.98921e-06
0.00101195
8.58761e-07
-6.41389e-06
0.00101851
1.11207e-06
-6.28403e-06
0.00102518
1.34387e-06
-6.36817e-06
0.00103214
1.56275e-06
-6.65082e-06
0.00103958
1.77729e-06
-7.12497e-06
0.00104767
1.99517e-06
-7.78077e-06
0.00105658
2.22522e-06
-8.61558e-06
0.00106651
2.47766e-06
-9.64773e-06
0.0010777
2.76403e-06
-1.09201e-05
0.00109046
3.09726e-06
-1.24963e-05
0.00110519
3.49231e-06
-1.44617e-05
0.00112239
3.96806e-06
-1.69379e-05
0.00114279
4.54963e-06
-2.01118e-05
0.00116741
5.27013e-06
-2.4294e-05
0.00119783
6.17153e-06
-3.00405e-05
0.00123673
7.30436e-06
-3.84353e-05
0.00128926
8.72403e-06
-5.19216e-05
1.04735e-05
-7.56595e-05
0.00136574
0.00099813
2.13541e-07
-1.04644e-05
0.00100521
4.53017e-07
-6.92941e-06
0.0010118
6.61456e-07
-6.367e-06
0.00101832
8.52321e-07
-6.24435e-06
0.00102497
1.03116e-06
-6.31712e-06
0.00103193
1.20379e-06
-6.57673e-06
0.00103937
1.37502e-06
-7.02269e-06
0.00104747
1.55007e-06
-7.64694e-06
0.00105642
1.73598e-06
-8.44686e-06
0.00106641
1.94117e-06
-9.44092e-06
0.00107768
2.17498e-06
-1.06727e-05
0.00109054
2.44806e-06
-1.22065e-05
0.0011054
2.77324e-06
-1.41285e-05
0.00112277
3.16659e-06
-1.656e-05
0.00114336
3.64872e-06
-1.96875e-05
0.00116821
4.24579e-06
-2.38198e-05
0.00119891
4.99001e-06
-2.95111e-05
0.00123814
5.91911e-06
-3.78424e-05
0.00129105
7.07238e-06
-5.12526e-05
8.4918e-06
-7.4909e-05
0.00136794
0.000998051
1.4484e-07
-1.04426e-05
0.00100511
3.07518e-07
-6.89388e-06
0.00101168
4.48269e-07
-6.33624e-06
0.0010182
5.76163e-07
-6.22259e-06
0.00102486
6.96816e-07
-6.29878e-06
0.00103182
8.15577e-07
-6.55761e-06
0.00103928
9.35964e-07
-7.00258e-06
0.00104741
1.06106e-06
-7.62701e-06
0.00105639
1.19519e-06
-8.42776e-06
0.00106642
1.34405e-06
-9.42247e-06
0.00107774
1.51422e-06
-1.0654e-05
0.00109067
1.71326e-06
-1.21863e-05
0.00110561
1.95021e-06
-1.41045e-05
0.00112307
2.23628e-06
-1.65291e-05
0.00114379
2.58549e-06
-1.96449e-05
0.00116878
3.01535e-06
-2.37594e-05
0.00119966
3.54703e-06
-2.9425e-05
0.0012391
4.20488e-06
-3.77204e-05
0.00129224
5.01175e-06
-5.10819e-05
6.00027e-06
-7.46874e-05
0.00136942
0.000997997
7.32352e-08
-1.04313e-05
0.00100504
1.55299e-07
-6.87411e-06
0.0010116
2.26802e-07
-6.31766e-06
0.00101812
2.91556e-07
-6.20894e-06
0.00102477
3.52695e-07
-6.28713e-06
0.00103174
4.13316e-07
-6.54353e-06
0.0010392
4.75246e-07
-6.98326e-06
0.00104733
5.39824e-07
-7.60092e-06
0.00105632
6.09064e-07
-8.39359e-06
0.00106637
6.85921e-07
-9.37868e-06
0.00107772
7.7395e-07
-1.05989e-05
0.00109068
8.77155e-07
-1.2118e-05
0.00110566
1.00019e-06
-1.40212e-05
0.00112318
1.1487e-06
-1.64288e-05
0.00114397
1.32969e-06
-1.95255e-05
0.00116906
1.5519e-06
-2.36184e-05
0.00120004
1.82588e-06
-2.92596e-05
0.00123962
2.16374e-06
-3.7527e-05
0.00129291
2.57572e-06
-5.08551e-05
3.08679e-06
-7.44319e-05
0.00137026
0.000997971
8.19782e-10
-1.04263e-05
0.00100501
1.09165e-09
-6.865e-06
0.00101157
1.79903e-09
-6.30868e-06
0.00101808
2.478e-09
-6.20223e-06
0.00102473
3.06037e-09
-6.28184e-06
0.0010317
3.53828e-09
-6.53783e-06
0.00103916
3.94743e-09
-6.97612e-06
0.0010473
4.29611e-09
-7.59206e-06
0.0010563
4.57246e-09
-8.38295e-06
0.00106636
4.78972e-09
-9.36598e-06
0.00107772
5.00047e-09
-1.05837e-05
0.0010907
5.26344e-09
-1.20996e-05
0.0011057
5.6015e-09
-1.39991e-05
0.00112325
5.98903e-09
-1.64023e-05
0.00114408
6.38779e-09
-1.94941e-05
0.00116921
6.79838e-09
-2.35811e-05
0.00120025
7.26745e-09
-2.92151e-05
0.00123988
7.8645e-09
-3.74733e-05
0.00129324
8.61149e-09
-5.07887e-05
9.566e-09
-7.43592e-05
0.00137068
0.00099797
-7.16739e-08
-1.04263e-05
0.00100501
-1.53267e-07
-6.86499e-06
0.00101157
-2.23166e-07
-6.30868e-06
0.00101808
-2.86486e-07
-6.20222e-06
0.00102473
-3.46458e-07
-6.28181e-06
0.0010317
-4.06172e-07
-6.5378e-06
0.00103916
-4.67357e-07
-6.97607e-06
0.0010473
-5.31302e-07
-7.59202e-06
0.0010563
-6.00015e-07
-8.3829e-06
0.00106636
-6.76409e-07
-9.36596e-06
0.00107772
-7.63931e-07
-1.05837e-05
0.0010907
-8.66505e-07
-1.20997e-05
0.0011057
-9.88802e-07
-1.39992e-05
0.00112325
-1.13656e-06
-1.64024e-05
0.00114408
-1.31686e-06
-1.94941e-05
0.00116921
-1.53837e-06
-2.35811e-05
0.00120025
-1.81151e-06
-2.9215e-05
0.00123988
-2.14823e-06
-3.74732e-05
0.00129324
-2.5587e-06
-5.07886e-05
-3.06789e-06
-7.43592e-05
0.00137068
0.000997996
-1.43241e-07
-1.04312e-05
0.00100504
-3.05347e-07
-6.87402e-06
0.0010116
-4.44664e-07
-6.31756e-06
0.00101812
-5.71168e-07
-6.20885e-06
0.00102477
-6.90681e-07
-6.28702e-06
0.00103173
-8.08572e-07
-6.54342e-06
0.00103919
-9.28239e-07
-6.98318e-06
0.00104733
-1.05273e-06
-7.60084e-06
0.00105632
-1.18639e-06
-8.39347e-06
0.00106637
-1.33481e-06
-9.37851e-06
0.00107772
-1.50443e-06
-1.05987e-05
0.00109068
-1.70273e-06
-1.21178e-05
0.00110566
-1.93888e-06
-1.40211e-05
0.00112318
-2.22424e-06
-1.64287e-05
0.00114397
-2.57291e-06
-1.95254e-05
0.00116906
-3.00225e-06
-2.36184e-05
0.00120004
-3.53321e-06
-2.92595e-05
0.00123962
-4.18995e-06
-3.75268e-05
0.00129291
-4.99532e-06
-5.08549e-05
-5.98212e-06
-7.44317e-05
0.00137026
0.000998049
-2.12047e-07
-1.04425e-05
0.00100511
-4.50969e-07
-6.89376e-06
0.00101168
-6.57799e-07
-6.33612e-06
0.0010182
-8.47298e-07
-6.22244e-06
0.00102485
-1.02515e-06
-6.29857e-06
0.00103182
-1.19705e-06
-6.55739e-06
0.00103927
-1.36754e-06
-7.00244e-06
0.0010474
-1.54183e-06
-7.62695e-06
0.00105638
-1.7271e-06
-8.42773e-06
0.00106641
-1.93179e-06
-9.42238e-06
0.00107774
-2.16508e-06
-1.06539e-05
0.00109067
-2.43758e-06
-1.2186e-05
0.0011056
-2.76222e-06
-1.41042e-05
0.00112307
-3.15518e-06
-1.65288e-05
0.00114378
-3.63698e-06
-1.96448e-05
0.00116878
-4.23357e-06
-2.37594e-05
0.00119965
-4.97695e-06
-2.9425e-05
0.00123909
-5.90482e-06
-3.77205e-05
0.00129224
-7.0566e-06
-5.10819e-05
-8.47451e-06
-7.46873e-05
0.00136942
0.000998128
-2.72942e-07
-1.04643e-05
0.0010052
-5.81345e-07
-6.9292e-06
0.00101179
-8.5533e-07
-6.36676e-06
0.00101832
-1.10728e-06
-6.24406e-06
0.00102497
-1.33803e-06
-6.31669e-06
0.00103192
-1.55611e-06
-6.57622e-06
0.00103936
-1.76993e-06
-7.02221e-06
0.00104747
-1.98716e-06
-7.64654e-06
0.00105641
-2.21671e-06
-8.44656e-06
0.0010664
-2.46875e-06
-9.44073e-06
0.00107767
-2.75467e-06
-1.06726e-05
0.00109054
-3.08739e-06
-1.22064e-05
0.00110539
-3.48204e-06
-1.41282e-05
0.00112276
-3.95755e-06
-1.65597e-05
0.00114336
-4.53888e-06
-1.96871e-05
0.00116821
-5.25888e-06
-2.38195e-05
0.0011989
-6.1594e-06
-2.95109e-05
0.00123814
-7.29102e-06
-3.78422e-05
0.00129104
-8.70942e-06
-5.12525e-05
-1.04577e-05
-7.49089e-05
0.00136794
0.00099823
-3.09784e-07
-1.05057e-05
0.00100533
-6.76052e-07
-6.98888e-06
0.00101195
-1.03536e-06
-6.4135e-06
0.0010185
-1.35605e-06
-6.28357e-06
0.00102517
-1.62186e-06
-6.36763e-06
0.00103214
-1.85284e-06
-6.65028e-06
0.00103958
-2.06808e-06
-7.12447e-06
0.00104766
-2.28013e-06
-7.78027e-06
0.00105657
-2.50017e-06
-8.61509e-06
0.0010665
-2.74086e-06
-9.6474e-06
0.00107769
-3.01678e-06
-1.092e-05
0.00109045
-3.34363e-06
-1.24964e-05
0.00110518
-3.73843e-06
-1.44618e-05
0.00112239
-4.22197e-06
-1.69377e-05
0.00114279
-4.8221e-06
-2.01114e-05
0.0011674
-5.57631e-06
-2.42935e-05
0.00119782
-6.5335e-06
-3.004e-05
0.00123673
-7.75546e-06
-3.8435e-05
0.00128926
-9.31859e-06
-5.19214e-05
-1.12781e-05
-7.56593e-05
0.00136574
0.000998323
-2.60806e-07
-1.05904e-05
0.00100542
-6.70332e-07
-7.08402e-06
0.00101201
-1.14595e-06
-6.4563e-06
0.0010185
-1.5439e-06
-6.28253e-06
0.00102509
-1.85972e-06
-6.33114e-06
0.00103196
-2.13654e-06
-6.5726e-06
0.0010393
-2.39273e-06
-6.99949e-06
0.00104728
-2.63567e-06
-7.60715e-06
0.00105606
-2.87457e-06
-8.39786e-06
0.00106584
-3.12259e-06
-9.39395e-06
0.00107687
-3.39489e-06
-1.06414e-05
0.00108945
-3.7067e-06
-1.2206e-05
0.00110397
-4.07446e-06
-1.41749e-05
0.00112094
-4.51917e-06
-1.66707e-05
0.00114108
-5.06955e-06
-1.9882e-05
0.00116539
-5.76435e-06
-2.4121e-05
0.00119546
-6.65461e-06
-2.99465e-05
0.00123396
-7.80683e-06
-3.84461e-05
0.00128602
-9.30851e-06
-5.20676e-05
-1.12041e-05
-7.59629e-05
0.00136191
0.000998368
6.71156e-09
-1.07726e-05
0.00100568
-6.85658e-07
-7.27762e-06
0.00101246
-1.26361e-06
-6.63871e-06
0.00101899
-1.51876e-06
-6.53726e-06
0.0010255
-1.67015e-06
-6.68651e-06
0.00103222
-1.81159e-06
-7.02508e-06
0.00103933
-1.94684e-06
-7.54407e-06
0.00104703
-2.07597e-06
-8.23996e-06
0.00105548
-2.20916e-06
-9.11327e-06
0.00106492
-2.35947e-06
-1.01847e-05
0.00107557
-2.53741e-06
-1.15004e-05
0.00108775
-2.75137e-06
-1.31281e-05
0.00110185
-3.01189e-06
-1.51576e-05
0.00111839
-3.33546e-06
-1.77151e-05
0.00113806
-3.74626e-06
-2.09924e-05
0.00116188
-4.27733e-06
-2.53053e-05
0.00119142
-4.97343e-06
-3.12163e-05
0.00122934
-5.89724e-06
-3.9818e-05
0.00128074
-7.14747e-06
-5.35636e-05
-8.77748e-06
-7.76074e-05
0.00135592
0.000996611
2.15117e-06
-1.08641e-05
0.00100347
-6.04329e-07
-6.92697e-06
0.00100981
-1.60373e-06
-5.97669e-06
0.00101589
-1.91053e-06
-5.66612e-06
0.00102198
-2.13767e-06
-5.61061e-06
0.00102827
-2.32068e-06
-5.76082e-06
0.00103491
-2.44308e-06
-6.12888e-06
0.00104208
-2.52229e-06
-6.71719e-06
0.00105
-2.58464e-06
-7.52496e-06
0.00105886
-2.647e-06
-8.56899e-06
0.00106894
-2.71601e-06
-9.89075e-06
0.00108054
-2.79568e-06
-1.15537e-05
0.00109408
-2.89338e-06
-1.36451e-05
0.00111006
-3.02173e-06
-1.62905e-05
0.0011292
-3.1983e-06
-1.9683e-05
0.00115252
-3.44616e-06
-2.4141e-05
0.00118157
-3.79701e-06
-3.02315e-05
0.00121903
-4.29804e-06
-3.90556e-05
0.00127
-5.03405e-06
-5.30745e-05
-6.00177e-06
-7.74497e-05
0.00134467
0.000996275
3.61044e-06
-1.07807e-05
0.0010018
-3.33509e-07
-5.77837e-06
0.00100586
-8.32882e-07
-4.81579e-06
0.00100979
-1.1962e-06
-4.63025e-06
0.00101388
-1.51333e-06
-4.69812e-06
0.00101828
-1.71694e-06
-4.99358e-06
0.00102319
-1.81409e-06
-5.51722e-06
0.00102878
-1.84616e-06
-6.25408e-06
0.00103525
-1.84728e-06
-7.19878e-06
0.00104281
-1.83294e-06
-8.36902e-06
0.00105172
-1.80718e-06
-9.8072e-06
0.00106228
-1.77253e-06
-1.15779e-05
0.0010749
-1.73447e-06
-1.37705e-05
0.0010901
-1.7009e-06
-1.65143e-05
0.0011086
-1.68097e-06
-2.00086e-05
0.00113142
-1.68584e-06
-2.45807e-05
0.00116017
-1.73224e-06
-3.08106e-05
0.00119755
-1.84924e-06
-3.98194e-05
0.00124872
-2.11696e-06
-5.40858e-05
-2.37158e-06
-7.88265e-05
0.00132392
0.00100254
-4.19956e-06
0.00100309
-8.71038e-07
0.00100325
-9.7314e-07
0.00100329
-1.22696e-06
0.00100336
-1.56339e-06
0.00100373
-2.07373e-06
0.0010047
-2.77486e-06
0.00100652
-3.65403e-06
0.00100939
-4.71103e-06
0.00101354
-5.97408e-06
0.00101924
-7.49484e-06
0.00102681
-9.34387e-06
0.0010367
-1.16162e-05
0.00104945
-1.44487e-05
0.00106583
-1.80522e-05
0.00108692
-2.27724e-05
0.00111441
-2.92208e-05
0.00115115
-3.85784e-05
0.00120243
-5.33954e-05
-7.91837e-05
0.00127924
0.000996361
-1.01939e-05
-3.22512e-06
0.00100172
-4.55842e-06
-1.66398e-06
0.00100558
-2.94701e-06
-1.868e-06
0.00100926
-2.08026e-06
-2.81547e-06
0.00101307
-1.41324e-06
-3.93669e-06
0.00101714
-8.99189e-07
-5.23719e-06
0.00102168
-5.16097e-07
-6.77957e-06
0.00102686
-2.20776e-07
-8.60145e-06
0.00103287
2.68205e-08
-1.07444e-05
0.00103993
2.52334e-07
-1.32727e-05
0.00104826
4.70132e-07
-1.62832e-05
0.00105814
6.8917e-07
-1.99108e-05
0.00106995
9.20061e-07
-2.43313e-05
0.00108411
1.17664e-06
-2.97874e-05
0.00110122
1.47509e-06
-3.66314e-05
0.00112202
1.83459e-06
-4.53987e-05
0.00114746
2.28058e-06
-5.69377e-05
0.00117868
2.85164e-06
-7.26406e-05
0.00121658
3.58964e-06
-9.48811e-05
4.30451e-06
-0.00012722
0.00126032
0.00113141
-2.30166e-06
-3.33716e-06
0.00112477
-7.68468e-07
-2.91867e-06
0.00112024
4.96906e-08
-3.2574e-06
0.00111738
3.55624e-07
-4.18273e-06
0.00111607
5.42323e-07
-5.33363e-06
0.00111614
7.09089e-07
-6.64759e-06
0.00111743
8.58331e-07
-8.16503e-06
0.0011199
9.96631e-07
-9.93128e-06
0.00112359
1.14236e-06
-1.19925e-05
0.00112859
1.30976e-06
-1.44137e-05
0.00113505
1.50574e-06
-1.72891e-05
0.00114318
1.73551e-06
-2.07424e-05
0.00115327
2.00832e-06
-2.494e-05
0.00116571
2.33971e-06
-3.01104e-05
0.00118102
2.75115e-06
-3.65854e-05
0.00119987
3.27035e-06
-4.48683e-05
0.00122317
3.93363e-06
-5.57563e-05
0.00125198
4.79253e-06
-7.05642e-05
0.00128716
5.90377e-06
-9.15773e-05
7.18705e-06
-0.000121983
0.00132744
0.0011428
1.77239e-07
-8.35877e-06
0.0011419
5.5311e-07
-7.338e-06
0.00114193
1.0316e-06
-6.96184e-06
0.00114259
1.36529e-06
-7.3249e-06
0.00114396
1.5874e-06
-8.00374e-06
0.00114604
1.76887e-06
-8.88945e-06
0.00114887
1.9333e-06
-1.00138e-05
0.00115249
2.08954e-06
-1.14257e-05
0.00115704
2.25074e-06
-1.31698e-05
0.00116266
2.43256e-06
-1.53042e-05
0.00116955
2.64791e-06
-1.79126e-05
0.00117795
2.90759e-06
-2.11116e-05
0.00118815
3.22492e-06
-2.50595e-05
0.00120057
3.61905e-06
-2.99757e-05
0.0012157
4.11621e-06
-3.61787e-05
0.00123424
4.75036e-06
-4.41529e-05
0.00125705
5.56536e-06
-5.46701e-05
0.00128518
6.61951e-06
-6.90096e-05
0.00131944
7.9852e-06
-8.94151e-05
9.64607e-06
-0.000118918
0.00135846
0.00114492
3.7224e-07
-8.30855e-06
0.00114578
7.12396e-07
-8.28606e-06
0.00114738
1.05949e-06
-8.24631e-06
0.00114961
1.3868e-06
-8.76784e-06
0.00115246
1.64811e-06
-9.5784e-06
0.00115593
1.85967e-06
-1.05643e-05
0.00116003
2.0463e-06
-1.17458e-05
0.00116484
2.22498e-06
-1.3172e-05
0.00117047
2.41033e-06
-1.48909e-05
0.00117707
2.618e-06
-1.69638e-05
0.00118484
2.86346e-06
-1.94789e-05
0.00119403
3.16131e-06
-2.25567e-05
0.00120493
3.52754e-06
-2.6356e-05
0.00121795
3.9831e-06
-3.10938e-05
0.00123361
4.55638e-06
-3.70831e-05
0.00125257
5.28468e-06
-4.48002e-05
0.00127572
6.21551e-06
-5.50058e-05
0.00130408
7.40856e-06
-6.89611e-05
0.00133845
8.93483e-06
-8.88868e-05
1.07926e-05
-0.000117768
0.00137747
0.00114482
3.46667e-07
-7.97156e-06
0.00114599
6.82183e-07
-8.20239e-06
0.001148
9.71683e-07
-8.36105e-06
0.0011508
1.2533e-06
-8.92451e-06
0.00115434
1.51297e-06
-9.72115e-06
0.00115857
1.74708e-06
-1.06745e-05
0.00116348
1.96522e-06
-1.18071e-05
0.0011691
2.17966e-06
-1.31687e-05
0.00117553
2.40256e-06
-1.48108e-05
0.00118291
2.64679e-06
-1.67979e-05
0.00119144
2.92616e-06
-1.92205e-05
0.00120135
3.25535e-06
-2.21991e-05
0.00121295
3.65102e-06
-2.58907e-05
0.00122664
4.13446e-06
-3.05082e-05
0.00124294
4.73405e-06
-3.63592e-05
0.00126254
5.4869e-06
-4.39141e-05
0.0012863
6.43976e-06
-5.39254e-05
0.00131526
7.64984e-06
-6.7643e-05
0.00135022
9.18385e-06
-8.72722e-05
1.10538e-05
-0.000115781
0.00138978
0.00114464
2.80458e-07
-7.80421e-06
0.00114586
5.64285e-07
-8.06522e-06
0.00114798
7.9774e-07
-8.34433e-06
0.00115094
1.01643e-06
-8.97787e-06
0.00115469
1.22956e-06
-9.81274e-06
0.00115917
1.43559e-06
-1.08021e-05
0.00116436
1.63589e-06
-1.19726e-05
0.0011703
1.83705e-06
-1.33691e-05
0.00117709
2.04868e-06
-1.50382e-05
0.00118486
2.28164e-06
-1.70411e-05
0.00119379
2.54764e-06
-1.94653e-05
0.00120413
2.85968e-06
-2.24292e-05
0.00121618
3.23308e-06
-2.60874e-05
0.00123035
3.68727e-06
-3.06501e-05
0.00124715
4.24766e-06
-3.6422e-05
0.00126727
4.94702e-06
-4.38693e-05
0.00129159
5.82621e-06
-5.37394e-05
0.00132115
6.93429e-06
-6.72748e-05
0.00135676
8.32583e-06
-8.66715e-05
1.00151e-05
-0.000114897
0.00139704
0.00114449
2.09318e-07
-7.71987e-06
0.00114568
4.27007e-07
-7.96119e-06
0.00114782
6.07804e-07
-8.28636e-06
0.00115079
7.72315e-07
-8.95247e-06
0.00115458
9.34341e-07
-9.79032e-06
0.00115913
1.09756e-06
-1.07679e-05
0.00116441
1.26225e-06
-1.19217e-05
0.00117048
1.43149e-06
-1.32975e-05
0.00117743
1.61181e-06
-1.4941e-05
0.00118538
1.81144e-06
-1.69123e-05
0.00119452
2.03933e-06
-1.9299e-05
0.0012051
2.30558e-06
-2.22194e-05
0.00121742
2.62239e-06
-2.58282e-05
0.00123188
3.00534e-06
-3.03348e-05
0.00124902
3.47458e-06
-3.60422e-05
0.00126951
4.05589e-06
-4.34139e-05
0.00129424
4.78119e-06
-5.31934e-05
0.00132427
5.6886e-06
-6.6618e-05
0.0013604
6.82011e-06
-8.58768e-05
8.194e-06
-0.000113938
0.00140125
0.00114439
1.38827e-07
-7.67502e-06
0.00114555
2.85577e-07
-7.89527e-06
0.00114767
4.09087e-07
-8.23819e-06
0.00115065
5.19701e-07
-8.9265e-06
0.00115445
6.27788e-07
-9.7727e-06
0.00115902
7.38603e-07
-1.07486e-05
0.00116434
8.53002e-07
-1.1898e-05
0.00117046
9.72301e-07
-1.32693e-05
0.00117746
1.1003e-06
-1.49074e-05
0.00118549
1.24253e-06
-1.68715e-05
0.00119473
1.40531e-06
-1.92485e-05
0.00120542
1.59569e-06
-2.21563e-05
0.00121787
1.8222e-06
-2.5749e-05
0.00123249
2.09563e-06
-3.0235e-05
0.00124981
2.42984e-06
-3.59153e-05
0.00127053
2.8424e-06
-4.32513e-05
0.00129552
3.35493e-06
-5.29838e-05
0.00132584
3.99309e-06
-6.63468e-05
0.00136232
4.78423e-06
-8.55257e-05
5.74441e-06
-0.000113494
0.00140358
0.00114432
6.93841e-08
-7.65163e-06
0.00114546
1.43105e-07
-7.85745e-06
0.00114758
2.06142e-07
-8.20623e-06
0.00115056
2.62257e-07
-8.90677e-06
0.00115436
3.16678e-07
-9.75878e-06
0.00115893
3.72831e-07
-1.07327e-05
0.00116426
4.31511e-07
-1.18758e-05
0.00117039
4.93235e-07
-1.3239e-05
0.00117742
5.59731e-07
-1.48675e-05
0.00118548
6.33812e-07
-1.68199e-05
0.00119476
7.18783e-07
-1.91828e-05
0.0012055
8.18303e-07
-2.20741e-05
0.00121802
9.36713e-07
-2.5648e-05
0.00123273
1.07947e-06
-3.01123e-05
0.00125016
1.25353e-06
-3.57678e-05
0.00127099
1.46773e-06
-4.30749e-05
0.00129614
1.73292e-06
-5.27738e-05
0.00132664
2.06202e-06
-6.60972e-05
0.00136333
2.46846e-06
-8.52288e-05
2.96419e-06
-0.000113146
0.00140483
0.00114428
7.36014e-10
-7.64155e-06
0.00114542
1.07247e-09
-7.84033e-06
0.00114753
1.70212e-09
-8.1906e-06
0.00115051
2.30265e-09
-8.89652e-06
0.00115431
2.8268e-09
-9.75178e-06
0.00115889
3.27958e-09
-1.07253e-05
0.00116422
3.66785e-09
-1.18659e-05
0.00117036
3.99921e-09
-1.3226e-05
0.00117739
4.28396e-09
-1.4851e-05
0.00118547
4.54596e-09
-1.67991e-05
0.00119476
4.82795e-09
-1.91568e-05
0.00120553
5.16891e-09
-2.20419e-05
0.00121807
5.56821e-09
-2.56084e-05
0.00123282
5.98566e-09
-3.00644e-05
0.00125029
6.38493e-09
-3.57104e-05
0.00127118
6.77739e-09
-4.30067e-05
0.00129639
7.22954e-09
-5.26928e-05
0.00132698
7.82136e-09
-6.60011e-05
0.00136377
8.58024e-09
-8.5114e-05
9.54352e-09
-0.000113014
0.00140537
0.00114428
-6.7942e-08
-7.64153e-06
0.00114542
-1.41008e-07
-7.84031e-06
0.00114753
-2.02639e-07
-8.19058e-06
0.00115051
-2.57528e-07
-8.89649e-06
0.00115431
-3.10918e-07
-9.75174e-06
0.00115889
-3.66214e-07
-1.07252e-05
0.00116422
-4.24174e-07
-1.18659e-05
0.00117036
-4.85269e-07
-1.3226e-05
0.00117739
-5.51199e-07
-1.48509e-05
0.00118547
-6.24731e-07
-1.67991e-05
0.00119476
-7.09091e-07
-1.91568e-05
0.00120553
-8.07889e-07
-2.20419e-05
0.00121807
-9.25497e-07
-2.56084e-05
0.00123282
-1.06746e-06
-3.00644e-05
0.00125029
-1.24082e-06
-3.57104e-05
0.00127118
-1.45431e-06
-4.30067e-05
0.00129639
-1.71864e-06
-5.26928e-05
0.00132698
-2.04657e-06
-6.6001e-05
0.00136376
-2.45148e-06
-8.51139e-05
-2.94531e-06
-0.000113013
0.00140537
0.00114432
-1.3738e-07
-7.65157e-06
0.00114546
-2.83433e-07
-7.8574e-06
0.00114758
-4.05666e-07
-8.20614e-06
0.00115056
-5.15053e-07
-8.90666e-06
0.00115436
-6.22108e-07
-9.75863e-06
0.00115893
-7.32081e-07
-1.07325e-05
0.00116426
-8.45769e-07
-1.18756e-05
0.00117039
-9.64439e-07
-1.32388e-05
0.00117742
-1.09186e-06
-1.48673e-05
0.00118548
-1.23353e-06
-1.68197e-05
0.00119476
-1.39566e-06
-1.91826e-05
0.0012055
-1.58531e-06
-2.2074e-05
0.00121802
-1.81107e-06
-2.56478e-05
0.00123273
-2.08385e-06
-3.01122e-05
0.00125015
-2.41752e-06
-3.57677e-05
0.00127099
-2.82948e-06
-4.30749e-05
0.00129613
-3.34119e-06
-5.27737e-05
0.00132664
-3.97815e-06
-6.6097e-05
0.00136333
-4.76774e-06
-8.52285e-05
-5.72618e-06
-0.000113146
0.00140483
0.00114438
-2.07931e-07
-7.6749e-06
0.00114555
-4.24902e-07
-7.89517e-06
0.00114767
-6.04278e-07
-8.23805e-06
0.00115065
-7.67575e-07
-8.9263e-06
0.00115445
-9.2866e-07
-9.77242e-06
0.00115902
-1.09113e-06
-1.07483e-05
0.00116434
-1.25509e-06
-1.18977e-05
0.00117045
-1.42363e-06
-1.3269e-05
0.00117746
-1.60331e-06
-1.49073e-05
0.00118549
-1.80236e-06
-1.68714e-05
0.00119472
-2.02965e-06
-1.92483e-05
0.00120541
-2.29531e-06
-2.21561e-05
0.00121786
-2.61165e-06
-2.57488e-05
0.00123249
-2.99425e-06
-3.02348e-05
0.00124981
-3.46314e-06
-3.59152e-05
0.00127052
-4.04386e-06
-4.32512e-05
0.00129551
-4.7682e-06
-5.29837e-05
0.00132584
-5.6743e-06
-6.63467e-05
0.00136232
-6.80429e-06
-8.55255e-05
-8.17668e-06
-0.000113493
0.00140358
0.00114449
-2.79154e-07
-7.7197e-06
0.00114568
-5.62234e-07
-7.96103e-06
0.00114781
-7.94389e-07
-8.28611e-06
0.00115079
-1.01184e-06
-8.95211e-06
0.00115457
-1.22397e-06
-9.78979e-06
0.00115912
-1.42916e-06
-1.07673e-05
0.00116441
-1.62869e-06
-1.19211e-05
0.00117048
-1.8292e-06
-1.3297e-05
0.00117742
-2.04037e-06
-1.49407e-05
0.00118537
-2.27291e-06
-1.69121e-05
0.00119452
-2.53841e-06
-1.92988e-05
0.00120509
-2.84993e-06
-2.22192e-05
0.00121741
-3.22298e-06
-2.5828e-05
0.00123188
-3.67696e-06
-3.03345e-05
0.00124901
-4.23709e-06
-3.60418e-05
0.0012695
-4.93589e-06
-4.34135e-05
0.00129424
-5.81413e-06
-5.3193e-05
0.00132426
-6.92099e-06
-6.66176e-05
0.0013604
-8.31127e-06
-8.58763e-05
-9.99938e-06
-0.000113938
0.00140125
0.00114464
-3.45539e-07
-7.80396e-06
0.00114585
-6.8029e-07
-8.06499e-06
0.00114798
-9.68397e-07
-8.34394e-06
0.00115093
-1.24873e-06
-8.97729e-06
0.00115468
-1.50722e-06
-9.81193e-06
0.00115916
-1.74033e-06
-1.08013e-05
0.00116435
-1.95781e-06
-1.1972e-05
0.0011703
-2.17199e-06
-1.33686e-05
0.00117709
-2.39483e-06
-1.50378e-05
0.00118485
-2.63881e-06
-1.70408e-05
0.00119379
-2.91768e-06
-1.94651e-05
0.00120412
-3.24634e-06
-2.24291e-05
0.00121618
-3.64169e-06
-2.60873e-05
0.00123034
-4.12495e-06
-3.06498e-05
0.00124715
-4.72428e-06
-3.64216e-05
0.00126727
-5.4766e-06
-4.38688e-05
0.00129159
-6.42868e-06
-5.37388e-05
0.00132115
-7.63789e-06
-6.72743e-05
0.00135676
-9.17109e-06
-8.66709e-05
-1.10403e-05
-0.000114896
0.00139704
0.00114482
-3.71338e-07
-7.9712e-06
0.00114598
-7.10803e-07
-8.20197e-06
0.001148
-1.05643e-06
-8.36034e-06
0.00115079
-1.3822e-06
-8.92352e-06
0.00115434
-1.64208e-06
-9.71993e-06
0.00115857
-1.85273e-06
-1.06734e-05
0.00116347
-2.03914e-06
-1.18063e-05
0.00116909
-2.21802e-06
-1.31681e-05
0.00117552
-2.40342e-06
-1.48103e-05
0.00118291
-2.6107e-06
-1.67975e-05
0.00119143
-2.85562e-06
-1.92201e-05
0.00120134
-3.15318e-06
-2.21987e-05
0.00121294
-3.51944e-06
-2.58903e-05
0.00122663
-3.97499e-06
-3.05077e-05
0.00124294
-4.54791e-06
-3.63587e-05
0.00126254
-5.27549e-06
-4.39136e-05
0.0012863
-6.20553e-06
-5.39248e-05
0.00131526
-7.398e-06
-6.76423e-05
0.00135021
-8.92395e-06
-8.72713e-05
-1.07816e-05
-0.00011578
0.00138978
0.00114491
-1.76495e-07
-8.30803e-06
0.00114578
-5.51452e-07
-8.28545e-06
0.00114738
-1.02839e-06
-8.24532e-06
0.00114961
-1.36039e-06
-8.76655e-06
0.00115246
-1.58115e-06
-9.57705e-06
0.00115592
-1.76216e-06
-1.05632e-05
0.00116002
-1.92692e-06
-1.17449e-05
0.00116483
-2.08358e-06
-1.31713e-05
0.00117046
-2.24456e-06
-1.48905e-05
0.00117706
-2.42561e-06
-1.69636e-05
0.00118484
-2.64052e-06
-1.94788e-05
0.00119402
-2.90052e-06
-2.25565e-05
0.00120492
-3.21854e-06
-2.63559e-05
0.00121795
-3.61297e-06
-3.10937e-05
0.0012336
-4.10962e-06
-3.70829e-05
0.00125257
-4.74273e-06
-4.48e-05
0.00127572
-5.55678e-06
-5.50054e-05
0.00130408
-6.61056e-06
-6.89606e-05
0.00133845
-7.97649e-06
-8.88859e-05
-9.63794e-06
-0.000117766
0.00137747
0.00114279
2.3023e-06
-8.35803e-06
0.0011419
7.69876e-07
-7.33712e-06
0.00114192
-4.71755e-08
-6.96048e-06
0.00114259
-3.51426e-07
-7.32318e-06
0.00114395
-5.37116e-07
-8.00203e-06
0.00114604
-7.03462e-07
-8.88809e-06
0.00114886
-8.5274e-07
-1.00127e-05
0.00115249
-9.91346e-07
-1.14247e-05
0.00115704
-1.13693e-06
-1.31692e-05
0.00116266
-1.30367e-06
-1.53038e-05
0.00116955
-1.49929e-06
-1.79124e-05
0.00117794
-1.72962e-06
-2.11114e-05
0.00118815
-2.0035e-06
-2.50592e-05
0.00120056
-2.33555e-06
-2.99754e-05
0.0012157
-2.7467e-06
-3.61785e-05
0.00123424
-3.26488e-06
-4.41526e-05
0.00125705
-3.9272e-06
-5.46697e-05
0.00128518
-4.78579e-06
-6.9009e-05
0.00131945
-5.89751e-06
-8.9414e-05
-7.18175e-06
-0.000118915
0.00135846
0.0011314
1.01935e-05
-3.33627e-06
0.00112477
4.55766e-06
-2.9177e-06
0.00112023
2.94656e-06
-3.2559e-06
0.00111737
2.08078e-06
-4.18057e-06
0.00111607
1.41465e-06
-5.33103e-06
0.00111613
9.01353e-07
-6.64519e-06
0.00111742
5.18783e-07
-8.16307e-06
0.0011199
2.23705e-07
-9.92985e-06
0.00112359
-2.35407e-08
-1.19916e-05
0.00112859
-2.48517e-07
-1.44133e-05
0.00113505
-4.66088e-07
-1.72887e-05
0.00114318
-6.85523e-07
-2.07419e-05
0.00115327
-9.17154e-07
-2.49394e-05
0.00116571
-1.17419e-06
-3.011e-05
0.00118102
-1.47246e-06
-3.65853e-05
0.00119988
-1.83136e-06
-4.48685e-05
0.00122318
-2.27685e-06
-5.57565e-05
0.00125199
-2.848e-06
-7.0564e-05
0.00128717
-3.58679e-06
-9.15764e-05
-4.30278e-06
-0.000121981
0.00132745
0.000996358
-3.22417e-06
0.00100172
-1.66321e-06
0.00100557
-1.86648e-06
0.00100926
-2.81343e-06
0.00101306
-3.93395e-06
0.00101713
-5.23406e-06
0.00102167
-6.77651e-06
0.00102685
-8.59897e-06
0.00103287
-1.07428e-05
0.00103993
-1.32716e-05
0.00104826
-1.62822e-05
0.00105814
-1.99095e-05
0.00106995
-2.43299e-05
0.00108412
-2.97863e-05
0.00110123
-3.66308e-05
0.00112203
-4.53987e-05
0.00114747
-5.6938e-05
0.00117869
-7.26408e-05
0.00121659
-9.48807e-05
-0.000127218
0.00126033
0.000997056
-1.03315e-05
-1.53259e-06
0.00100374
-5.78403e-06
-2.54676e-06
0.0010098
-4.20027e-06
-3.71333e-06
0.00101551
-3.21401e-06
-5.29489e-06
0.00102114
-2.42182e-06
-7.12837e-06
0.00102686
-1.75581e-06
-9.17838e-06
0.00103281
-1.2067e-06
-1.15072e-05
0.00103916
-7.49293e-07
-1.41928e-05
0.0010461
-3.48194e-07
-1.73202e-05
0.00105381
1.89866e-08
-2.09949e-05
0.00106252
3.65252e-07
-2.53496e-05
0.00107248
7.03591e-07
-3.05574e-05
0.00108396
1.04613e-06
-3.68497e-05
0.0010973
1.40854e-06
-4.45359e-05
0.00111291
1.80839e-06
-5.40398e-05
0.00113121
2.2669e-06
-6.59655e-05
0.00115266
2.81218e-06
-8.11904e-05
0.00117753
3.48318e-06
-0.000100995
0.00120559
4.32447e-06
-0.000127256
5.19357e-06
-0.000162322
0.0012355
0.00114312
-7.34959e-06
-1.23913e-06
0.00114208
-5.25035e-06
-2.39471e-06
0.00114191
-3.75305e-06
-3.51045e-06
0.00114233
-2.91973e-06
-4.88007e-06