/*--------------------------------*- C++ -*----------------------------------*\
  =========                 |
  \\      /  F ield         | OpenFOAM: The Open Source CFD Toolbox
   \\    /   O peration     | Website:  https://openfoam.org
    \\  /    A nd           | Version:  10
     \\/     M anipulation  |
\*---------------------------------------------------------------------------*/
FoamFile
{
    format      ascii;
    class       volScalarField;
    location    "100";
    object      rho;
}
// * * * * * * * * * * * * * * * * * * * * * * * * * * * * * * * * * * * * * //

dimensions      [1 -3 0 0 0 0 0];

internalField   nonuniform List<scalar> 
112000
(
0.45915
0.45765
0.456451
0.455752
0.45526
0.454777
0.454228
0.453607
0.452908
0.452112
0.451182
0.450081
0.448766
0.447183
0.445257
0.442881
0.439892
0.436036
0.430827
0.42441
0.455589
0.45539
0.455071
0.454839
0.454632
0.454366
0.454001
0.453529
0.452953
0.45226
0.451422
0.450402
0.449155
0.447627
0.445744
0.443398
0.440426
0.43657
0.431326
0.424895
0.456001
0.455958
0.455791
0.455588
0.455357
0.455068
0.454688
0.454205
0.453617
0.452916
0.452073
0.451048
0.449795
0.448256
0.446358
0.443991
0.440992
0.437098
0.431788
0.425304
0.456016
0.455838
0.455583
0.45536
0.455142
0.454879
0.454532
0.454088
0.45354
0.452878
0.45207
0.451076
0.449848
0.448331
0.446449
0.444092
0.441093
0.437186
0.43184
0.425325
0.455979
0.45579
0.455555
0.455376
0.455202
0.454973
0.454653
0.45423
0.453702
0.453053
0.452255
0.451268
0.450047
0.448534
0.446651
0.444289
0.441275
0.437341
0.431946
0.425383
0.455935
0.455745
0.455507
0.455326
0.455147
0.454914
0.454591
0.454166
0.453637
0.452988
0.452191
0.451207
0.449989
0.448479
0.446597
0.44423
0.441204
0.437248
0.431815
0.425214
0.455895
0.455705
0.455469
0.45529
0.455116
0.454889
0.454571
0.454151
0.453626
0.452982
0.452188
0.451206
0.449989
0.448476
0.446588
0.44421
0.441168
0.437187
0.431716
0.425074
0.455864
0.455675
0.45544
0.455263
0.455089
0.454862
0.454543
0.454122
0.453595
0.452948
0.452151
0.451165
0.449942
0.448423
0.446526
0.444137
0.441079
0.437077
0.431576
0.4249
0.455843
0.455654
0.45542
0.455244
0.455071
0.454844
0.454526
0.454105
0.453577
0.45293
0.452131
0.451143
0.449917
0.448393
0.446492
0.444094
0.441026
0.437009
0.431487
0.424784
0.455833
0.455644
0.45541
0.455234
0.455062
0.454835
0.454516
0.454095
0.453567
0.452918
0.452119
0.451129
0.449901
0.448375
0.446469
0.444067
0.440992
0.436966
0.431434
0.424715
0.455833
0.455644
0.45541
0.455234
0.455062
0.454835
0.454516
0.454095
0.453567
0.452918
0.452119
0.451129
0.449901
0.448375
0.446469
0.444067
0.440992
0.436966
0.431434
0.424715
0.455843
0.455654
0.45542
0.455244
0.455071
0.454844
0.454525
0.454104
0.453577
0.452929
0.452131
0.451143
0.449917
0.448393
0.446491
0.444094
0.441026
0.437008
0.431487
0.424784
0.455864
0.455674
0.455439
0.455262
0.455089
0.454861
0.454543
0.454122
0.453595
0.452948
0.452151
0.451165
0.449942
0.448422
0.446526
0.444136
0.441079
0.437076
0.431576
0.424899
0.455895
0.455705
0.455468
0.45529
0.455116
0.454888
0.454571
0.454151
0.453626
0.452981
0.452188
0.451206
0.449988
0.448476
0.446588
0.44421
0.441168
0.437186
0.431715
0.425073
0.455934
0.455744
0.455506
0.455325
0.455146
0.454914
0.45459
0.454166
0.453636
0.452988
0.452191
0.451207
0.449989
0.448479
0.446597
0.44423
0.441204
0.437247
0.431813
0.425212
0.455978
0.455789
0.455554
0.455375
0.455201
0.454972
0.454652
0.454229
0.453701
0.453052
0.452254
0.451267
0.450046
0.448533
0.446651
0.444289
0.441275
0.43734
0.431945
0.425382
0.456015
0.455836
0.455581
0.455359
0.45514
0.454878
0.454531
0.454087
0.45354
0.452877
0.452069
0.451075
0.449848
0.448331
0.446449
0.444091
0.441092
0.437185
0.431839
0.425324
0.456
0.455957
0.45579
0.455587
0.455356
0.455067
0.454687
0.454204
0.453617
0.452915
0.452072
0.451048
0.449795
0.448256
0.446357
0.44399
0.440991
0.437097
0.431788
0.425304
0.455588
0.455388
0.455069
0.454837
0.45463
0.454365
0.454
0.453529
0.452952
0.452258
0.451421
0.450401
0.449155
0.447627
0.445743
0.443396
0.440424
0.436569
0.431325
0.424895
0.459149
0.457649
0.45645
0.45575
0.455259
0.454776
0.454228
0.453606
0.452907
0.45211
0.451182
0.450082
0.448767
0.447183
0.445257
0.44288
0.439891
0.436036
0.430828
0.424411
0.455676
0.455478
0.455162
0.454936
0.454738
0.454484
0.454135
0.453684
0.453134
0.452474
0.451675
0.450703
0.449516
0.448063
0.446277
0.444062
0.441278
0.437718
0.433032
0.427166
0.451997
0.452227
0.45246
0.452569
0.452563
0.452452
0.452228
0.451888
0.451434
0.45086
0.450142
0.449246
0.448128
0.446738
0.445008
0.442841
0.440099
0.436571
0.431908
0.426086
0.452591
0.453056
0.453417
0.45353
0.453455
0.453252
0.452938
0.452511
0.451974
0.45132
0.45053
0.449566
0.448385
0.446931
0.445136
0.442903
0.44009
0.436485
0.431727
0.425825
0.452567
0.453015
0.453345
0.453476
0.453445
0.45329
0.453018
0.452627
0.452118
0.451485
0.450706
0.449746
0.448561
0.447096
0.445282
0.443021
0.44017
0.43651
0.431675
0.425697
0.452507
0.452988
0.453364
0.453555
0.453588
0.45349
0.453264
0.452909
0.452429
0.451816
0.45105
0.450096
0.44891
0.447439
0.445613
0.443331
0.440447
0.43674
0.431834
0.425786
0.452452
0.452941
0.453325
0.45352
0.45356
0.453472
0.453259
0.45292
0.452455
0.451857
0.451106
0.450165
0.448992
0.44753
0.445708
0.443423
0.440526
0.436794
0.431845
0.425752
0.452407
0.452899
0.453287
0.453487
0.453533
0.453453
0.453251
0.452923
0.45247
0.451883
0.451142
0.450212
0.449046
0.44759
0.445769
0.44348
0.440573
0.436821
0.431841
0.425712
0.452374
0.452867
0.453258
0.45346
0.453506
0.453427
0.453226
0.4529
0.452447
0.451862
0.451123
0.450193
0.449028
0.447571
0.445747
0.443452
0.440535
0.436768
0.431763
0.425608
0.452352
0.452845
0.453237
0.453441
0.453488
0.453409
0.453208
0.452882
0.452431
0.451846
0.451106
0.450176
0.44901
0.447551
0.445725
0.443426
0.440501
0.436723
0.431701
0.425525
0.45234
0.452834
0.453227
0.453431
0.453479
0.4534
0.453199
0.452873
0.45242
0.451835
0.451095
0.450164
0.448996
0.447536
0.445707
0.443405
0.440475
0.43669
0.431659
0.425471
0.45234
0.452834
0.453227
0.453431
0.453479
0.4534
0.453199
0.452872
0.45242
0.451835
0.451095
0.450164
0.448996
0.447536
0.445707
0.443405
0.440475
0.43669
0.431659
0.425471
0.452351
0.452845
0.453237
0.453441
0.453488
0.453409
0.453208
0.452882
0.452431
0.451846
0.451106
0.450176
0.44901
0.447551
0.445725
0.443425
0.440501
0.436722
0.431701
0.425524
0.452373
0.452866
0.453257
0.453459
0.453506
0.453427
0.453226
0.452899
0.452447
0.451862
0.451123
0.450193
0.449028
0.44757
0.445747
0.443452
0.440535
0.436768
0.431763
0.425607
0.452406
0.452898
0.453286
0.453486
0.453532
0.453453
0.453251
0.452923
0.452469
0.451883
0.451142
0.450211
0.449046
0.44759
0.445769
0.44348
0.440572
0.436821
0.43184
0.425711
0.452451
0.45294
0.453324
0.453519
0.453559
0.453471
0.453258
0.452919
0.452455
0.451857
0.451105
0.450165
0.448992
0.44753
0.445708
0.443423
0.440525
0.436793
0.431844
0.42575
0.452506
0.452987
0.453363
0.453554
0.453587
0.453489
0.453263
0.452909
0.452429
0.451816
0.451049
0.450095
0.448909
0.447439
0.445613
0.443331
0.440446
0.436739
0.431833
0.425784
0.452566
0.453013
0.453344
0.453475
0.453444
0.453289
0.453017
0.452626
0.452117
0.451484
0.450705
0.449746
0.44856
0.447095
0.445282
0.443021
0.440169
0.43651
0.431674
0.425696
0.452589
0.453055
0.453416
0.453529
0.453453
0.453251
0.452937
0.452511
0.451973
0.451319
0.450529
0.449566
0.448384
0.44693
0.445135
0.442902
0.44009
0.436484
0.431726
0.425825
0.451996
0.452225
0.452458
0.452567
0.452562
0.452451
0.452227
0.451887
0.451433
0.450858
0.450141
0.449246
0.448129
0.446738
0.445007
0.44284
0.440097
0.436571
0.431908
0.426086
0.455675
0.455477
0.455161
0.454934
0.454736
0.454484
0.454135
0.453684
0.453134
0.452473
0.451676
0.450704
0.449518
0.448064
0.446278
0.444062
0.441277
0.437718
0.433033
0.427167
0.456245
0.456204
0.456041
0.455849
0.455637
0.455374
0.455028
0.454589
0.454059
0.453429
0.452674
0.451759
0.450646
0.449288
0.447631
0.445597
0.443079
0.439931
0.435938
0.431075
0.452758
0.453224
0.45359
0.453711
0.45365
0.453466
0.453177
0.452783
0.452287
0.451684
0.450957
0.450073
0.448991
0.447666
0.446042
0.44404
0.441555
0.43844
0.434477
0.429671
0.454222
0.453969
0.453978
0.453899
0.453675
0.453359
0.452969
0.452498
0.45194
0.451287
0.450518
0.449599
0.448485
0.447128
0.44547
0.443431
0.440905
0.437741
0.433714
0.428858
0.454272
0.454116
0.454063
0.45395
0.453715
0.453387
0.452979
0.452488
0.451911
0.451239
0.45045
0.449509
0.448371
0.446986
0.445295
0.443218
0.440644
0.43742
0.433313
0.428381
0.454141
0.45417
0.454232
0.454198
0.454031
0.453752
0.453372
0.452894
0.452316
0.451634
0.450827
0.449861
0.448693
0.447275
0.445545
0.443421
0.440791
0.437498
0.433305
0.428286
0.454057
0.454138
0.454237
0.454221
0.454074
0.453821
0.45347
0.453017
0.452461
0.451796
0.451002
0.450045
0.448882
0.447463
0.445725
0.443584
0.440926
0.437593
0.433342
0.428264
0.453999
0.454092
0.454207
0.454203
0.454067
0.453831
0.453499
0.453067
0.452531
0.451884
0.451106
0.450164
0.449012
0.4476
0.445863
0.443717
0.441045
0.437689
0.4334
0.428284
0.453958
0.454055
0.454178
0.454178
0.454045
0.453812
0.453485
0.45306
0.452531
0.451891
0.45112
0.450184
0.449039
0.447631
0.445895
0.443748
0.44107
0.4377
0.433389
0.428249
0.453931
0.45403
0.454157
0.45416
0.454028
0.453794
0.453469
0.453046
0.45252
0.451883
0.451115
0.450181
0.449038
0.447632
0.445897
0.443748
0.441066
0.437688
0.433364
0.428208
0.453919
0.454018
0.454146
0.454151
0.454019
0.453785
0.45346
0.453036
0.45251
0.451874
0.451106
0.450173
0.44903
0.447624
0.445889
0.443739
0.441054
0.437671
0.433339
0.428176
0.453918
0.454018
0.454146
0.454151
0.454019
0.453785
0.45346
0.453036
0.45251
0.451874
0.451106
0.450173
0.44903
0.447624
0.445889
0.443739
0.441054
0.437671
0.433339
0.428176
0.453931
0.45403
0.454156
0.45416
0.454028
0.453794
0.453469
0.453046
0.452519
0.451883
0.451115
0.450181
0.449038
0.447632
0.445897
0.443748
0.441066
0.437688
0.433363
0.428208
0.453957
0.454054
0.454177
0.454178
0.454045
0.453811
0.453485
0.453059
0.45253
0.451891
0.45112
0.450184
0.449038
0.44763
0.445895
0.443747
0.44107
0.4377
0.433389
0.428248
0.453998
0.454092
0.454206
0.454202
0.454067
0.45383
0.453499
0.453067
0.452531
0.451884
0.451106
0.450163
0.449012
0.4476
0.445863
0.443717
0.441045
0.437688
0.4334
0.428283
0.454056
0.454137
0.454236
0.454221
0.454074
0.453821
0.453469
0.453017
0.452461
0.451796
0.451002
0.450045
0.448882
0.447463
0.445725
0.443584
0.440926
0.437592
0.433341
0.428263
0.45414
0.454169
0.454231
0.454197
0.45403
0.453751
0.453371
0.452893
0.452316
0.451633
0.450826
0.44986
0.448693
0.447275
0.445545
0.443421
0.44079
0.437497
0.433304
0.428285
0.454271
0.454115
0.454062
0.453949
0.453714
0.453385
0.452978
0.452488
0.451911
0.451239
0.45045
0.449508
0.44837
0.446986
0.445295
0.443217
0.440643
0.437419
0.433313
0.42838
0.45422
0.453967
0.453977
0.453897
0.453673
0.453358
0.452968
0.452497
0.451939
0.451286
0.450518
0.449598
0.448485
0.447128
0.445469
0.443431
0.440905
0.43774
0.433713
0.428857
0.452756
0.453222
0.453588
0.45371
0.453648
0.453465
0.453177
0.452783
0.452286
0.451683
0.450957
0.450073
0.448992
0.447667
0.446041
0.444039
0.441554
0.43844
0.434477
0.429671
0.456243
0.456202
0.45604
0.455848
0.455636
0.455373
0.455028
0.454589
0.454059
0.453429
0.452674
0.45176
0.450647
0.44929
0.447632
0.445597
0.443078
0.439931
0.435939
0.431077
0.456482
0.456305
0.456059
0.455855
0.455668
0.455448
0.455159
0.454789
0.454339
0.453799
0.453145
0.452345
0.451366
0.450173
0.448722
0.446954
0.444795
0.442151
0.438904
0.435051
0.452962
0.453411
0.453752
0.453902
0.453901
0.453788
0.453571
0.453251
0.452832
0.452312
0.451674
0.45089
0.449928
0.448751
0.447316
0.445567
0.443429
0.44081
0.43759
0.433784
0.454516
0.45436
0.454314
0.454215
0.454001
0.453701
0.453329
0.452884
0.452363
0.451761
0.451058
0.450223
0.449218
0.448003
0.446534
0.444752
0.442581
0.439926
0.436661
0.432824
0.455171
0.454429
0.454009
0.453774
0.453529
0.453227
0.45286
0.452423
0.45191
0.451313
0.450612
0.449775
0.448764
0.447538
0.446051
0.444244
0.44204
0.43934
0.436016
0.432121
0.45507
0.454619
0.454303
0.454114
0.453898
0.453603
0.453223
0.45276
0.452213
0.451578
0.450836
0.449956
0.448901
0.44763
0.446094
0.444233
0.441968
0.439199
0.435791
0.431813
0.454919
0.454644
0.454426
0.454273
0.454083
0.453815
0.453457
0.453007
0.452467
0.451831
0.451083
0.450193
0.449123
0.447832
0.44627
0.444375
0.442066
0.439241
0.435764
0.431717
0.454833
0.454606
0.45443
0.454299
0.45413
0.453889
0.453562
0.453141
0.452624
0.452008
0.451275
0.450395
0.449332
0.448041
0.446471
0.444561
0.442228
0.439369
0.435845
0.431749
0.454778
0.454564
0.454406
0.454286
0.454123
0.453891
0.453577
0.45317
0.452669
0.452066
0.451346
0.450478
0.449423
0.448139
0.446572
0.44466
0.442318
0.439444
0.435894
0.431772
0.454745
0.454534
0.454385
0.454271
0.454109
0.453879
0.453568
0.453168
0.452673
0.452078
0.451364
0.450503
0.449455
0.448176
0.446613
0.444702
0.442359
0.439478
0.435915
0.43178
0.454729
0.45452
0.454374
0.454262
0.454101
0.45387
0.45356
0.453161
0.452668
0.452075
0.451364
0.450505
0.449459
0.448183
0.446622
0.444712
0.442368
0.439484
0.435916
0.431775
0.454728
0.45452
0.454374
0.454262
0.454101
0.45387
0.45356
0.453161
0.452668
0.452075
0.451364
0.450505
0.449459
0.448183
0.446622
0.444712
0.442368
0.439484
0.435916
0.431775
0.454744
0.454534
0.454385
0.45427
0.454109
0.453879
0.453568
0.453167
0.452673
0.452078
0.451364
0.450503
0.449455
0.448176
0.446613
0.444702
0.442359
0.439478
0.435915
0.43178
0.454777
0.454563
0.454406
0.454286
0.454123
0.453891
0.453576
0.45317
0.452668
0.452066
0.451346
0.450477
0.449423
0.448138
0.446572
0.444659
0.442318
0.439444
0.435894
0.431772
0.454832
0.454606
0.454429
0.454299
0.454129
0.453888
0.453561
0.45314
0.452624
0.452008
0.451275
0.450395
0.449331
0.44804
0.446471
0.444561
0.442228
0.439369
0.435844
0.431749
0.454918
0.454643
0.454425
0.454272
0.454083
0.453814
0.453456
0.453007
0.452466
0.45183
0.451082
0.450192
0.449123
0.447832
0.44627
0.444375
0.442065
0.439241
0.435763
0.431716
0.455069
0.454618
0.454302
0.454113
0.453897
0.453602
0.453222
0.452759
0.452213
0.451578
0.450835
0.449955
0.448901
0.44763
0.446094
0.444233
0.441968
0.439198
0.43579
0.431812
0.455169
0.454427
0.454008
0.453772
0.453528
0.453226
0.452859
0.452422
0.451909
0.451312
0.450611
0.449774
0.448763
0.447538
0.446051
0.444244
0.442039
0.43934
0.436015
0.43212
0.454514
0.454359
0.454313
0.454214
0.454
0.4537
0.453328
0.452884
0.452363
0.45176
0.451057
0.450222
0.449217
0.448003
0.446534
0.444752
0.442581
0.439925
0.43666
0.432823
0.452961
0.45341
0.45375
0.4539
0.4539
0.453787
0.45357
0.45325
0.452831
0.452311
0.451673
0.45089
0.449928
0.448751
0.447316
0.445566
0.443428
0.440809
0.437589
0.433784
0.45648
0.456304
0.456057
0.455854
0.455667
0.455448
0.455159
0.45479
0.454339
0.453799
0.453145
0.452345
0.451368
0.450175
0.448723
0.446954
0.444794
0.442151
0.438904
0.435052
0.456722
0.456538
0.456318
0.456171
0.456045
0.455885
0.455655
0.455349
0.454969
0.454508
0.453945
0.453255
0.452412
0.451389
0.450154
0.448665
0.446875
0.44473
0.442172
0.439211
0.453182
0.453666
0.454058
0.45428
0.454361
0.454329
0.45419
0.453949
0.453612
0.453179
0.452637
0.451966
0.45114
0.450132
0.44891
0.447437
0.445665
0.443539
0.441003
0.438073
0.454676
0.454705
0.454779
0.454772
0.454644
0.45442
0.454112
0.453725
0.453264
0.452726
0.452098
0.451357
0.450472
0.449413
0.448147
0.446634
0.444826
0.442666
0.440092
0.437131
0.455375
0.454923
0.454614
0.454439
0.454245
0.453981
0.453642
0.45323
0.452749
0.452194
0.451552
0.450797
0.449898
0.448824
0.44754
0.446006
0.444171
0.441977
0.439359
0.436352
0.455744
0.455034
0.454583
0.454372
0.454191
0.453945
0.453615
0.453202
0.452712
0.452141
0.451478
0.450698
0.449773
0.448668
0.44735
0.445775
0.443893
0.441645
0.438961
0.435887
0.45561
0.455167
0.454809
0.454611
0.454426
0.454174
0.453835
0.453409
0.452901
0.452311
0.451627
0.450826
0.449877
0.448746
0.447396
0.445784
0.443856
0.441554
0.438806
0.435666
0.455463
0.455173
0.45491
0.454751
0.454591
0.454366
0.454051
0.453644
0.453147
0.452561
0.451877
0.45107
0.450112
0.448966
0.447596
0.445955
0.443993
0.441647
0.438844
0.435649
0.455382
0.455136
0.454914
0.454775
0.45463
0.454423
0.454131
0.453745
0.453267
0.452697
0.452025
0.451228
0.450274
0.44913
0.447756
0.446106
0.444127
0.441757
0.438921
0.435692
0.455337
0.455102
0.454898
0.454769
0.454629
0.454429
0.454146
0.453773
0.453308
0.452751
0.45209
0.451303
0.450358
0.449221
0.447851
0.446202
0.444219
0.441839
0.438987
0.43574
0.455316
0.455084
0.454887
0.454762
0.454623
0.454424
0.454145
0.453775
0.453316
0.452763
0.452108
0.451326
0.450387
0.449255
0.447888
0.446241
0.444258
0.441875
0.439017
0.435764
0.455316
0.455083
0.454887
0.454762
0.454623
0.454424
0.454144
0.453775
0.453315
0.452763
0.452108
0.451326
0.450387
0.449254
0.447888
0.446241
0.444258
0.441875
0.439017
0.435764
0.455337
0.455101
0.454898
0.454769
0.454628
0.454428
0.454146
0.453773
0.453308
0.452751
0.45209
0.451303
0.450358
0.449221
0.447851
0.446202
0.444219
0.441839
0.438986
0.43574
0.455382
0.455135
0.454914
0.454775
0.45463
0.454423
0.45413
0.453744
0.453266
0.452697
0.452025
0.451227
0.450274
0.44913
0.447756
0.446106
0.444127
0.441757
0.438921
0.435691
0.455462
0.455172
0.45491
0.45475
0.45459
0.454365
0.454051
0.453643
0.453146
0.452561
0.451876
0.45107
0.450111
0.448966
0.447595
0.445955
0.443992
0.441646
0.438843
0.435648
0.455609
0.455166
0.454808
0.45461
0.454425
0.454173
0.453834
0.453408
0.4529
0.452311
0.451627
0.450825
0.449876
0.448746
0.447396
0.445783
0.443856
0.441554
0.438805
0.435665
0.455743
0.455033
0.454582
0.454371
0.45419
0.453944
0.453614
0.453201
0.452711
0.452141
0.451477
0.450698
0.449772
0.448668
0.44735
0.445775
0.443893
0.441644
0.43896
0.435886
0.455374
0.454922
0.454613
0.454438
0.454244
0.45398
0.453641
0.45323
0.452748
0.452194
0.451552
0.450796
0.449898
0.448824
0.44754
0.446005
0.44417
0.441976
0.439358
0.436351
0.454674
0.454703
0.454777
0.45477
0.454643
0.454419
0.454111
0.453725
0.453263
0.452725
0.452097
0.451356
0.450471
0.449413
0.448146
0.446634
0.444826
0.442666
0.440092
0.437131
0.45318
0.453664
0.454056
0.454279
0.45436
0.454328
0.45419
0.453949
0.453611
0.453178
0.452636
0.451966
0.45114
0.450132
0.44891
0.447436
0.445664
0.443539
0.441003
0.438073
0.45672
0.456536
0.456316
0.456169
0.456044
0.455884
0.455655
0.455349
0.454969
0.454508
0.453945
0.453256
0.452413
0.45139
0.450154
0.448665
0.446875
0.44473
0.442172
0.439211
0.457002
0.456818
0.456604
0.456469
0.456363
0.456229
0.456036
0.455779
0.455462
0.45508
0.454617
0.454051
0.453363
0.452533
0.451538
0.450352
0.448946
0.447293
0.445373
0.443201
0.453451
0.453946
0.454353
0.454595
0.454705
0.454714
0.454628
0.454451
0.454192
0.453853
0.453423
0.452886
0.452222
0.451412
0.450433
0.449263
0.447872
0.446236
0.444332
0.442176
0.454924
0.455006
0.455124
0.45515
0.455065
0.454897
0.454656
0.454346
0.45397
0.453529
0.453015
0.452407
0.451682
0.450818
0.449792
0.448578
0.447148
0.445475
0.443531
0.441338
0.455568
0.455291
0.455085
0.454961
0.454817
0.454611
0.454336
0.453992
0.453585
0.453116
0.452575
0.451941
0.451192
0.450303
0.449251
0.448009
0.44655
0.444841
0.442856
0.440616
0.455967
0.455522
0.455172
0.45499
0.454832
0.454615
0.454322
0.453954
0.453519
0.45302
0.452447
0.451782
0.451001
0.45008
0.448994
0.447715
0.446214
0.444458
0.442418
0.440121
0.45623
0.455584
0.455117
0.454878
0.454702
0.45449
0.454209
0.453853
0.453426
0.452931
0.452359
0.451693
0.450908
0.449978
0.448875
0.447573
0.446041
0.444246
0.442157
0.439807
0.456096
0.455681
0.455306
0.455086
0.454909
0.454695
0.454413
0.454051
0.453616
0.453109
0.452525
0.451845
0.451044
0.450095
0.448969
0.447639
0.446071
0.444235
0.442097
0.439695
0.455961
0.455682
0.455395
0.45521
0.455052
0.454857
0.454591
0.454243
0.453816
0.453312
0.452726
0.452042
0.451234
0.450274
0.449134
0.447783
0.446189
0.44432
0.442142
0.4397
0.455893
0.455653
0.455403
0.455237
0.455091
0.454911
0.454664
0.454335
0.453924
0.453434
0.452859
0.452182
0.451379
0.45042
0.449277
0.447919
0.446313
0.444426
0.442223
0.439755
0.455864
0.455632
0.455396
0.455238
0.455096
0.454921
0.454682
0.454363
0.453962
0.45348
0.452913
0.452243
0.451446
0.450491
0.449351
0.447992
0.446382
0.444488
0.442275
0.439795
0.455864
0.455632
0.455396
0.455238
0.455096
0.454921
0.454682
0.454363
0.453962
0.45348
0.452913
0.452243
0.451446
0.450491
0.449351
0.447992
0.446382
0.444488
0.442275
0.439795
0.455893
0.455652
0.455403
0.455237
0.455091
0.45491
0.454664
0.454335
0.453924
0.453434
0.452859
0.452182
0.451378
0.45042
0.449277
0.447919
0.446313
0.444426
0.442223
0.439754
0.455961
0.455681
0.455394
0.45521
0.455051
0.454856
0.454591
0.454243
0.453815
0.453311
0.452726
0.452042
0.451234
0.450274
0.449133
0.447783
0.446189
0.44432
0.442142
0.439699
0.456095
0.45568
0.455306
0.455085
0.454908
0.454695
0.454412
0.454051
0.453615
0.453109
0.452524
0.451844
0.451043
0.450095
0.448969
0.447639
0.446071
0.444234
0.442096
0.439694
0.456229
0.455583
0.455116
0.454877
0.454701
0.454489
0.454208
0.453852
0.453426
0.45293
0.452359
0.451692
0.450908
0.449977
0.448875
0.447573
0.44604
0.444245
0.442156
0.439806
0.455965
0.455521
0.455171
0.454989
0.454831
0.454615
0.454322
0.453954
0.453519
0.453019
0.452446
0.451781
0.451001
0.45008
0.448994
0.447715
0.446214
0.444458
0.442418
0.44012
0.455566
0.455289
0.455084
0.45496
0.454816
0.45461
0.454335
0.453992
0.453585
0.453115
0.452574
0.451941
0.451192
0.450303
0.449251
0.448009
0.446549
0.44484
0.442855
0.440615
0.454922
0.455005
0.455123
0.455148
0.455063
0.454896
0.454656
0.454345
0.453969
0.453529
0.453014
0.452407
0.451682
0.450818
0.449792
0.448577
0.447148
0.445474
0.443531
0.441337
0.453449
0.453944
0.454351
0.454593
0.454704
0.454713
0.454627
0.454451
0.454191
0.453852
0.453422
0.452886
0.452222
0.451412
0.450433
0.449262
0.447872
0.446235
0.444331
0.442175
0.457
0.456816
0.456602
0.456468
0.456362
0.456229
0.456036
0.455779
0.455462
0.45508
0.454617
0.454052
0.453364
0.452534
0.451538
0.450352
0.448946
0.447293
0.445373
0.4432
0.457323
0.457143
0.456939
0.456825
0.456748
0.456655
0.456512
0.456317
0.456076
0.455786
0.455433
0.455001
0.454475
0.453841
0.453087
0.452197
0.451158
0.44996
0.448601
0.4471
0.453767
0.454267
0.454688
0.454952
0.455094
0.455145
0.455114
0.455005
0.454826
0.454583
0.45427
0.453871
0.453374
0.452764
0.452029
0.451157
0.450134
0.448951
0.447606
0.446115
0.455232
0.455329
0.455472
0.455525
0.455476
0.455358
0.455182
0.454947
0.454659
0.454322
0.45393
0.453465
0.45291
0.45225
0.451469
0.450556
0.449494
0.448274
0.446892
0.445361
0.455855
0.455629
0.455472
0.455386
0.455287
0.455143
0.454942
0.454683
0.45437
0.454007
0.453589
0.453099
0.452519
0.451832
0.451024
0.45008
0.448987
0.447732
0.446308
0.444731
0.456204
0.455913
0.455664
0.455538
0.45543
0.455275
0.455053
0.454762
0.454412
0.454008
0.453548
0.453017
0.452397
0.451672
0.450824
0.449839
0.448703
0.4474
0.445925
0.444291
0.456493
0.456078
0.455711
0.455508
0.45536
0.455185
0.454952
0.454654
0.454297
0.453886
0.453419
0.452882
0.452255
0.451521
0.45066
0.449656
0.448494
0.44716
0.445645
0.443967
0.456709
0.456114
0.455652
0.455404
0.455241
0.455073
0.454856
0.454574
0.45423
0.453829
0.453368
0.452836
0.452211
0.451474
0.450605
0.449587
0.448403
0.447042
0.445492
0.443775
0.456587
0.456195
0.455818
0.455588
0.455421
0.455246
0.455022
0.454733
0.454378
0.453965
0.453492
0.452947
0.452309
0.451557
0.45067
0.44963
0.448421
0.447029
0.445444
0.443689
0.456473
0.456201
0.455903
0.455704
0.455553
0.455393
0.455183
0.454905
0.454556
0.454143
0.453667
0.453116
0.452469
0.451705
0.450804
0.449746
0.448514
0.447094
0.445477
0.443689
0.456428
0.456188
0.455918
0.455733
0.455592
0.455444
0.455249
0.454983
0.454645
0.45424
0.453768
0.453219
0.452572
0.451805
0.450898
0.449832
0.448588
0.447153
0.445518
0.443712
0.456427
0.456188
0.455918
0.455733
0.455592
0.455444
0.455249
0.454983
0.454645
0.45424
0.453768
0.453218
0.452572
0.451805
0.450898
0.449832
0.448588
0.447153
0.445518
0.443712
0.456473
0.456201
0.455902
0.455704
0.455553
0.455393
0.455183
0.454904
0.454556
0.454143
0.453667
0.453115
0.452469
0.451705
0.450804
0.449746
0.448514
0.447094
0.445476
0.443689
0.456586
0.456195
0.455818
0.455588
0.455421
0.455246
0.455022
0.454733
0.454378
0.453965
0.453492
0.452946
0.452309
0.451556
0.45067
0.44963
0.448421
0.447029
0.445443
0.443689
0.456708
0.456113
0.455651
0.455403
0.455241
0.455073
0.454856
0.454574
0.45423
0.453828
0.453368
0.452835
0.452211
0.451474
0.450605
0.449587
0.448403
0.447041
0.445491
0.443774
0.456491
0.456077
0.45571
0.455507
0.455359
0.455185
0.454952
0.454654
0.454296
0.453885
0.453418
0.452881
0.452255
0.451521
0.45066
0.449656
0.448494
0.447159
0.445645
0.443966
0.456203
0.455912
0.455663
0.455536
0.455429
0.455274
0.455052
0.454762
0.454411
0.454008
0.453547
0.453016
0.452397
0.451672
0.450824
0.449839
0.448702
0.4474
0.445924
0.44429
0.455854
0.455627
0.455471
0.455385
0.455286
0.455142
0.454941
0.454682
0.454369
0.454007
0.453588
0.453098
0.452518
0.451832
0.451024
0.45008
0.448987
0.447731
0.446308
0.44473
0.45523
0.455327
0.45547
0.455523
0.455475
0.455357
0.455181
0.454947
0.454659
0.454322
0.453929
0.453464
0.45291
0.45225
0.451469
0.450555
0.449494
0.448274
0.446891
0.44536
0.453765
0.454264
0.454686
0.45495
0.455092
0.455144
0.455114
0.455004
0.454825
0.454582
0.454269
0.453871
0.453374
0.452764
0.452029
0.451156
0.450133
0.44895
0.447605
0.446114
0.457321
0.457141
0.456937
0.456823
0.456747
0.456654
0.456512
0.456317
0.456076
0.455786
0.455433
0.455002
0.454476
0.453842
0.453088
0.452197
0.451158
0.44996
0.448601
0.4471
0.457681
0.457504
0.457312
0.457217
0.457169
0.457113
0.457019
0.456883
0.456716
0.456517
0.456275
0.455977
0.455613
0.455176
0.45466
0.45406
0.45337
0.45259
0.451728
0.450804
0.45412
0.454624
0.455059
0.455343
0.455514
0.455603
0.455621
0.455573
0.455472
0.455322
0.455122
0.45486
0.454528
0.454117
0.453622
0.453039
0.452364
0.451597
0.450747
0.449828
0.455583
0.455686
0.455847
0.455923
0.455903
0.455825
0.455701
0.455533
0.455327
0.455088
0.454813
0.45449
0.454105
0.453648
0.453111
0.452489
0.451779
0.450977
0.450091
0.449133
0.456199
0.455986
0.455857
0.4558
0.455734
0.455635
0.455495
0.455309
0.455085
0.454828
0.454533
0.454189
0.453783
0.453303
0.452741
0.452092
0.451351
0.450516
0.449592
0.448589
0.45653
0.456283
0.456084
0.455995
0.455928
0.455828
0.455676
0.455467
0.45521
0.454915
0.45458
0.454196
0.45375
0.45323
0.452628
0.451937
0.451151
0.450269
0.449293
0.448235
0.456775
0.456494
0.456222
0.456073
0.455971
0.455853
0.455687
0.455465
0.455194
0.454883
0.454533
0.454136
0.453677
0.453143
0.452523
0.451809
0.450997
0.450083
0.449071
0.44797
0.457014
0.456623
0.456254
0.456043
0.455906
0.455773
0.455602
0.45538
0.455108
0.454795
0.454445
0.454047
0.453588
0.453051
0.452424
0.4517
0.450871
0.449936
0.448897
0.447765
0.457212
0.456653
0.456198
0.455946
0.455792
0.455658
0.455496
0.455284
0.455021
0.454714
0.454367
0.453972
0.453513
0.452975
0.452343
0.451608
0.450766
0.449812
0.44875
0.447592
0.457114
0.456735
0.456352
0.456114
0.455955
0.455813
0.455642
0.455419
0.455142
0.45482
0.454456
0.454044
0.453569
0.453013
0.452363
0.451608
0.450742
0.449763
0.448673
0.447487
0.457033
0.456756
0.456433
0.456217
0.45607
0.455936
0.45577
0.455548
0.455268
0.454939
0.454565
0.454141
0.453653
0.453083
0.452417
0.451645
0.450761
0.449762
0.448651
0.447445
0.457033
0.456755
0.456433
0.456217
0.45607
0.455936
0.45577
0.455548
0.455268
0.454939
0.454565
0.454141
0.453653
0.453083
0.452417
0.451645
0.450761
0.449762
0.448651
0.447445
0.457113
0.456734
0.456352
0.456113
0.455955
0.455812
0.455641
0.455418
0.455142
0.45482
0.454456
0.454044
0.453569
0.453013
0.452363
0.451608
0.450742
0.449762
0.448673
0.447486
0.457211
0.456652
0.456197
0.455945
0.455792
0.455658
0.455496
0.455284
0.455021
0.454714
0.454367
0.453972
0.453513
0.452974
0.452343
0.451608
0.450765
0.449811
0.448749
0.447591
0.457013
0.456622
0.456253
0.456042
0.455906
0.455772
0.455602
0.455379
0.455107
0.454795
0.454444
0.454047
0.453587
0.453051
0.452424
0.4517
0.450871
0.449935
0.448896
0.447764
0.456773
0.456493
0.456221
0.456072
0.45597
0.455852
0.455686
0.455464
0.455194
0.454883
0.454533
0.454135
0.453677
0.453143
0.452523
0.451809
0.450996
0.450082
0.44907
0.447969
0.456528
0.456282
0.456082
0.455993
0.455927
0.455827
0.455675
0.455466
0.45521
0.454914
0.454579
0.454195
0.45375
0.45323
0.452628
0.451937
0.451151
0.450268
0.449293
0.448234
0.456198
0.455985
0.455856
0.455798
0.455733
0.455634
0.455494
0.455309
0.455085
0.454827
0.454532
0.454189
0.453783
0.453303
0.452741
0.452092
0.451351
0.450515
0.449591
0.448588
0.455582
0.455685
0.455845
0.455921
0.455902
0.455824
0.455701
0.455532
0.455326
0.455087
0.454813
0.45449
0.454105
0.453648
0.453111
0.452489
0.451778
0.450977
0.45009
0.449132
0.454118
0.454622
0.455057
0.455341
0.455512
0.455602
0.455621
0.455573
0.455471
0.455321
0.455121
0.45486
0.454528
0.454117
0.453622
0.453039
0.452364
0.451597
0.450746
0.449827
0.457679
0.457502
0.45731
0.457215
0.457168
0.457113
0.457018
0.456883
0.456716
0.456517
0.456275
0.455978
0.455614
0.455177
0.454661
0.45406
0.45337
0.45259
0.451728
0.450804
0.458066
0.457893
0.457712
0.457638
0.45762
0.457603
0.457559
0.457487
0.457398
0.457293
0.457165
0.457003
0.456803
0.456562
0.456279
0.455953
0.455587
0.455185
0.454759
0.454328
0.454503
0.45501
0.455457
0.455762
0.455962
0.456091
0.456159
0.456175
0.45615
0.456096
0.456009
0.455884
0.455715
0.455499
0.455236
0.454928
0.454575
0.454184
0.453765
0.453335
0.455967
0.456073
0.456247
0.456345
0.456355
0.456315
0.456242
0.456138
0.456011
0.455869
0.45571
0.455526
0.455307
0.455047
0.454744
0.454399
0.454013
0.453589
0.453138
0.452671
0.45658
0.456373
0.456262
0.456228
0.456193
0.456134
0.456047
0.45593
0.455789
0.455631
0.455457
0.455256
0.455019
0.45474
0.454416
0.454047
0.453633
0.453179
0.452693
0.452185
0.456905
0.456671
0.456498
0.456438
0.456404
0.456349
0.456257
0.456122
0.455955
0.455765
0.455555
0.455317
0.455044
0.454728
0.454366
0.453956
0.4535
0.453
0.452466