/*--------------------------------*- C++ -*----------------------------------*\
  =========                 |
  \\      /  F ield         | OpenFOAM: The Open Source CFD Toolbox
   \\    /   O peration     | Website:  https://openfoam.org
    \\  /    A nd           | Version:  10
     \\/     M anipulation  |
\*---------------------------------------------------------------------------*/
FoamFile
{
    format      ascii;
    class       volVectorField;
    location    "100";
    object      U;
}
// * * * * * * * * * * * * * * * * * * * * * * * * * * * * * * * * * * * * * //

dimensions      [0 1 -1 0 0 0 0];

internalField   nonuniform List<vector> 
112000
(
(347.31 -14.0333 13.9384)
(350.198 -11.0375 10.8391)
(351.891 -9.27465 8.97102)
(352.434 -8.07658 7.66654)
(352.675 -7.17642 6.65649)
(353.039 -6.47892 5.84274)
(353.674 -5.94078 5.17838)
(354.644 -5.5318 4.62845)
(356.01 -5.22851 4.16291)
(357.86 -5.01811 3.76007)
(360.317 -4.89956 3.40726)
(363.53 -4.88063 3.09692)
(367.678 -4.97599 2.82253)
(372.991 -5.20986 2.57711)
(379.785 -5.62377 2.35364)
(388.518 -6.29216 2.14554)
(399.888 -7.35574 1.946)
(415.064 -9.10266 1.74576)
(435.848 -12.1904 1.51939)
(471.823 -18.2595 1.33455)
(348.748 -15.28 -3.54213)
(350.947 -11.5915 -5.38574)
(352.997 -9.23248 -5.84457)
(354.602 -7.63953 -5.81288)
(356.116 -6.49027 -5.63871)
(357.774 -5.63672 -5.40871)
(359.682 -5.00722 -5.14542)
(361.9 -4.55775 -4.86758)
(364.483 -4.25631 -4.59384)
(367.509 -4.08238 -4.335)
(371.087 -4.02769 -4.09276)
(375.359 -4.09439 -3.86539)
(380.5 -4.29334 -3.65308)
(386.733 -4.6459 -3.45919)
(394.366 -5.19083 -3.28887)
(403.841 -5.99888 -3.14792)
(415.835 -7.20484 -3.04387)
(431.493 -9.08448 -2.98939)
(452.551 -12.2781 -3.01358)
(488.666 -18.3542 -3.10287)
(348.496 -15.239 0.493893)
(350.868 -11.3948 0.952566)
(353.39 -8.85851 1.37177)
(355.739 -7.1368 1.65859)
(358.039 -5.90898 1.79671)
(360.417 -5.00657 1.82925)
(362.974 -4.3474 1.79611)
(365.784 -3.88396 1.7189)
(368.91 -3.5814 1.60933)
(372.428 -3.41577 1.4755)
(376.452 -3.37586 1.32341)
(381.125 -3.46183 1.1561)
(386.628 -3.68339 0.972849)
(393.186 -4.06104 0.769334)
(401.106 -4.63245 0.53827)
(410.828 -5.46679 0.269359)
(423.025 -6.69647 -0.0524363)
(438.841 -8.59323 -0.450756)
(459.99 -11.794 -0.968604)
(496.24 -17.8632 -1.62658)
(348.799 -15.2085 -0.0607077)
(351.617 -11.417 -0.391437)
(354.429 -8.94048 -0.811912)
(356.948 -7.26835 -1.19703)
(359.378 -6.0897 -1.5116)
(361.881 -5.23625 -1.75907)
(364.571 -4.62308 -1.95004)
(367.527 -4.20063 -2.09577)
(370.81 -3.93274 -2.20698)
(374.497 -3.79484 -2.29475)
(378.697 -3.7757 -2.3707)
(383.555 -3.87582 -2.44588)
(389.245 -4.1051 -2.53041)
(395.994 -4.48396 -2.63451)
(404.106 -5.04972 -2.7702)
(414.021 -5.87089 -2.95299)
(426.416 -7.07887 -3.2038)
(442.443 -8.94371 -3.55178)
(463.817 -12.1011 -4.04121)
(500.478 -18.1164 -4.69939)
(348.8 -15.1698 -0.103957)
(351.6 -11.3715 -0.24372)
(354.334 -8.88348 -0.346213)
(356.771 -7.17708 -0.393563)
(359.163 -5.95307 -0.402168)
(361.678 -5.05318 -0.39773)
(364.416 -4.39558 -0.395829)
(367.444 -3.93155 -0.404529)
(370.819 -3.62564 -0.429492)
(374.614 -3.45394 -0.476007)
(378.935 -3.40557 -0.549074)
(383.923 -3.48079 -0.652998)
(389.752 -3.68868 -0.791951)
(396.648 -4.04854 -0.971727)
(404.918 -4.59643 -1.20175)
(415.008 -5.39959 -1.49661)
(427.604 -6.58821 -1.87734)
(443.868 -8.43093 -2.37309)
(465.52 -11.5621 -3.02556)
(502.612 -17.5469 -3.86362)
(348.8 -15.1555 -0.103095)
(351.601 -11.3549 -0.225531)
(354.344 -8.87338 -0.340002)
(356.798 -7.17242 -0.45245)
(359.219 -5.95396 -0.565254)
(361.768 -5.06258 -0.680111)
(364.543 -4.4166 -0.796366)
(367.611 -3.96621 -0.913733)
(371.029 -3.67474 -1.03368)
(374.873 -3.5172 -1.15881)
(379.249 -3.4817 -1.29237)
(384.297 -3.5675 -1.43846)
(390.194 -3.78278 -1.60276)
(397.167 -4.14608 -1.79341)
(405.53 -4.69288 -2.02192)
(415.731 -5.48995 -2.30386)
(428.463 -6.667 -2.65955)
(444.897 -8.49194 -3.1152)
(466.761 -11.5982 -3.70543)
(504.215 -17.5529 -4.45702)
(348.798 -15.1487 -0.0857212)
(351.592 -11.3444 -0.183269)
(354.324 -8.86385 -0.268562)
(356.767 -7.16266 -0.345104)
(359.175 -5.94015 -0.413284)
(361.713 -5.04166 -0.475025)
(364.481 -4.38668 -0.532933)
(367.549 -3.92595 -0.590191)
(370.973 -3.62298 -0.650592)
(374.831 -3.45287 -0.718255)
(379.228 -3.4039 -0.797643)
(384.307 -3.47556 -0.893951)
(390.244 -3.67634 -1.0135)
(397.272 -4.02496 -1.16412)
(405.703 -4.55692 -1.35557)
(415.993 -5.33886 -1.60023)
(428.836 -6.5001 -1.91392)
(445.412 -8.30781 -2.31691)
(467.452 -11.3943 -2.83534)
(505.174 -17.3285 -3.49217)
(348.797 -15.1452 -0.0629167)
(351.584 -11.3384 -0.133995)
(354.31 -8.85833 -0.195761)
(356.747 -7.15839 -0.252061)
(359.154 -5.93618 -0.305444)
(361.696 -5.03724 -0.358669)
(364.469 -4.38187 -0.413635)
(367.545 -3.92116 -0.47173)
(370.981 -3.61859 -0.534656)
(374.854 -3.44908 -0.604749)
(379.271 -3.40078 -0.684908)
(384.374 -3.4731 -0.778564)
(390.344 -3.67439 -0.889806)
(397.41 -4.02311 -1.02367)
(405.89 -4.5544 -1.1866)
(416.241 -5.33441 -1.38709)
(429.161 -6.49191 -1.63629)
(445.835 -8.29346 -1.94868)
(468 -11.3705 -2.34237)
(505.923 -17.2946 -2.83675)
(348.796 -15.1434 -0.0382724)
(351.579 -11.3352 -0.0814157)
(354.3 -8.85527 -0.118913)
(356.733 -7.15607 -0.152911)
(359.139 -5.93407 -0.184938)
(361.68 -5.03447 -0.216472)
(364.454 -4.37778 -0.248388)
(367.531 -3.91533 -0.281393)
(370.97 -3.61064 -0.316623)
(374.848 -3.4386 -0.355749)
(379.274 -3.38733 -0.400756)
(384.39 -3.45624 -0.45385)
(390.376 -3.65363 -0.517603)
(397.464 -3.9979 -0.595274)
(405.973 -4.52408 -0.691152)
(416.362 -5.2982 -0.810881)
(429.331 -6.44892 -0.961703)
(446.07 -8.24253 -1.15268)
(468.318 -11.3099 -1.39434)
(506.364 -17.2249 -1.70081)
(348.795 -15.1427 -0.0129956)
(351.577 -11.3339 -0.0274966)
(354.295 -8.85395 -0.0402491)
(356.727 -7.15511 -0.0518189)
(359.131 -5.93333 -0.0627473)
(361.673 -5.03361 -0.073627)
(364.448 -4.3766 -0.0848836)
(367.527 -3.91377 -0.0968712)
(370.969 -3.6087 -0.110031)
(374.851 -3.43625 -0.124913)
(379.283 -3.38451 -0.142118)
(384.406 -3.45282 -0.162291)
(390.4 -3.64947 -0.18623)
(397.5 -3.99286 -0.215013)
(406.024 -4.51799 -0.250126)
(416.433 -5.29089 -0.29353)
(429.428 -6.44012 -0.34769)
(446.199 -8.23175 -0.415604)
(468.491 -11.2962 -0.500519)
(506.6 -17.209 -0.608076)
(348.795 -15.1427 0.0124337)
(351.577 -11.3339 0.0267546)
(354.295 -8.85395 0.0389747)
(356.727 -7.15511 0.0500526)
(359.131 -5.93334 0.0605661)
(361.673 -5.03361 0.0711096)
(364.448 -4.3766 0.0820881)
(367.527 -3.91377 0.0938537)
(370.969 -3.60869 0.106848)
(374.851 -3.43625 0.121593)
(379.282 -3.3845 0.13863)
(384.405 -3.45282 0.158563)
(390.4 -3.64949 0.182186)
(397.5 -3.99289 0.210628)
(406.024 -4.51803 0.245423)
(416.432 -5.29093 0.288543)
(429.428 -6.44014 0.342404)
(446.199 -8.23176 0.409918)
(468.491 -11.2962 0.494265)
(506.6 -17.209 0.601023)
(348.796 -15.1434 0.0377175)
(351.579 -11.3352 0.080677)
(354.299 -8.85525 0.117644)
(356.733 -7.15606 0.151151)
(359.138 -5.93406 0.182772)
(361.679 -5.03445 0.213979)
(364.453 -4.37777 0.245602)
(367.53 -3.91533 0.278338)
(370.969 -3.61063 0.313349)
(374.848 -3.43857 0.35232)
(379.274 -3.38728 0.397205)
(384.39 -3.45617 0.450154)
(390.375 -3.65356 0.513704)
(397.464 -3.99783 0.591111)
(405.973 -4.52402 0.686678)
(416.361 -5.29815 0.806048)
(429.331 -6.44887 0.956444)
(446.07 -8.24248 1.14691)
(468.318 -11.3099 1.38794)
(506.364 -17.2248 1.69369)
(348.797 -15.1452 0.0623731)
(351.584 -11.3384 0.133247)
(354.309 -8.8583 0.194468)
(356.747 -7.15837 0.250272)
(359.154 -5.93615 0.303284)
(361.695 -5.0372 0.356267)
(364.468 -4.38183 0.411045)
(367.544 -3.92115 0.468937)
(370.98 -3.61861 0.531625)
(374.853 -3.4491 0.601448)
(379.269 -3.40078 0.681326)
(384.373 -3.47308 0.774726)
(390.342 -3.67433 0.885779)
(397.409 -4.02302 1.01952)
(405.889 -4.5543 1.18235)
(416.24 -5.33433 1.38265)
(429.16 -6.49186 1.63149)
(445.835 -8.29344 1.94333)
(468 -11.3705 2.33632)
(505.923 -17.2946 2.82996)
(348.798 -15.1487 0.0852149)
(351.592 -11.3444 0.182553)
(354.324 -8.8638 0.267302)
(356.766 -7.16262 0.343339)
(359.174 -5.94009 0.41113)
(361.712 -5.04155 0.472584)
(364.48 -4.38654 0.530264)
(367.547 -3.92581 0.58736)
(370.972 -3.62284 0.647646)
(374.829 -3.45274 0.71514)
(379.226 -3.40379 0.794223)
(384.305 -3.47549 0.890147)
(390.243 -3.67628 1.0094)
(397.27 -4.02488 1.15989)
(405.702 -4.55682 1.35135)
(415.991 -5.33874 1.596)
(428.835 -6.49997 1.90949)
(445.411 -8.30771 2.31201)
(467.452 -11.3942 2.82977)
(505.175 -17.3285 3.48585)
(348.8 -15.1555 0.102656)
(351.601 -11.3548 0.22489)
(354.344 -8.87328 0.338841)
(356.798 -7.17233 0.45085)
(359.218 -5.95384 0.563315)
(361.767 -5.06245 0.677853)
(364.541 -4.41649 0.793727)
(367.609 -3.96612 0.91077)
(371.027 -3.67463 1.03062)
(374.871 -3.51705 1.15581)
(379.247 -3.48155 1.28938)
(384.295 -3.56739 1.43532)
(390.192 -3.78273 1.5994)
(397.165 -4.14606 1.78985)
(405.528 -4.69284 2.01823)
(415.729 -5.48987 2.30003)
(428.462 -6.66687 2.6555)
(444.897 -8.49179 3.11079)
(466.761 -11.5981 3.70057)
(504.216 -17.5529 4.45167)
(348.8 -15.1697 0.103626)
(351.6 -11.3713 0.243216)
(354.334 -8.88329 0.345179)
(356.77 -7.17684 0.392034)
(359.161 -5.95276 0.400169)
(361.676 -5.05283 0.395364)
(364.414 -4.39526 0.393232)
(367.442 -3.93132 0.401736)
(370.817 -3.62545 0.426524)
(374.611 -3.45373 0.472933)
(378.932 -3.40533 0.545972)
(383.92 -3.48054 0.649904)
(389.749 -3.68847 0.788828)
(396.645 -4.04838 0.968464)
(404.915 -4.59629 1.19822)
(415.006 -5.39945 1.49272)
(427.602 -6.58804 1.87308)
(443.867 -8.43075 2.36853)
(465.52 -11.5619 3.02081)
(502.612 -17.5467 3.85878)
(348.799 -15.2084 0.0604861)
(351.617 -11.4168 0.391017)
(354.429 -8.94021 0.811047)
(356.948 -7.26803 1.19569)
(359.377 -6.08935 1.50964)
(361.88 -5.23589 1.75657)
(364.569 -4.6227 1.94759)
(367.525 -4.2003 2.09376)
(370.807 -3.93252 2.20515)
(374.494 -3.79469 2.29266)
(378.695 -3.77558 2.36829)
(383.552 -3.87568 2.44342)
(389.243 -4.10493 2.52814)
(395.992 -4.48379 2.63238)
(404.103 -5.04957 2.76791)
(414.019 -5.87078 2.95027)
(426.415 -7.0788 3.20062)
(442.443 -8.94368 3.54831)
(463.818 -12.1011 4.03771)
(500.479 -18.1163 4.69606)
(348.496 -15.2388 -0.494054)
(350.868 -11.3945 -0.953006)
(353.39 -8.85804 -1.37277)
(355.739 -7.13621 -1.66027)
(358.038 -5.90837 -1.79899)
(360.416 -5.00607 -1.83202)
(362.971 -4.34694 -1.79891)
(365.781 -3.8835 -1.72134)
(368.907 -3.58101 -1.61159)
(372.426 -3.4155 -1.47806)
(376.449 -3.37565 -1.32636)
(381.123 -3.46162 -1.15905)
(386.625 -3.68314 -0.97542)
(393.183 -4.06076 -0.771543)
(401.104 -4.63217 -0.540507)
(410.826 -5.46656 -0.27201)
(423.024 -6.69633 0.0492856)
(438.841 -8.59314 0.447348)
(459.99 -11.7939 0.96531)
(496.241 -17.8631 1.62372)
(348.748 -15.2798 3.54218)
(350.948 -11.5911 5.38582)
(352.997 -9.23185 5.84464)
(354.602 -7.63864 5.81232)
(356.115 -6.48924 5.6379)
(357.773 -5.6358 5.40798)
(359.679 -5.00643 5.14466)
(361.897 -4.55705 4.86664)
(364.481 -4.25573 4.5926)
(367.507 -4.08189 4.33342)
(371.085 -4.02721 4.09102)
(375.357 -4.09387 3.86386)
(380.497 -4.29279 3.65198)
(386.731 -4.64538 3.45839)
(394.365 -5.19039 3.28798)
(403.841 -5.99857 3.14659)
(415.835 -7.20464 3.04203)
(431.493 -9.08434 2.98725)
(452.552 -12.278 3.01151)
(488.668 -18.354 3.10121)
(347.31 -14.0331 -13.9383)
(350.198 -11.0371 -10.8388)
(351.891 -9.2739 -8.97032)
(352.434 -8.07564 -7.666)
(352.674 -7.17526 -6.65589)
(353.038 -6.47762 -5.8419)
(353.672 -5.93947 -5.17747)
(354.642 -5.53063 -4.6277)
(356.008 -5.22757 -4.16241)
(357.858 -5.01726 -3.75975)
(360.315 -4.89866 -3.40693)
(363.527 -4.87962 -3.09644)
(367.675 -4.97497 -2.82184)
(372.989 -5.20896 -2.57631)
(379.784 -5.62306 -2.35294)
(388.518 -6.29164 -2.1451)
(399.889 -7.35535 -1.94586)
(415.065 -9.10233 -1.74584)
(435.848 -12.19 -1.51953)
(471.824 -18.259 -1.33458)
(348.733 3.24579 15.1745)
(350.885 4.76101 11.3662)
(352.866 4.8966 8.88353)
(354.387 4.52898 7.15986)
(355.798 3.99428 5.86905)
(357.338 3.36594 4.85875)
(359.109 2.65257 4.05248)
(361.172 1.85761 3.40066)
(363.579 0.980944 2.864)
(366.406 0.00991904 2.41183)
(369.758 -1.0831 2.02404)
(373.764 -2.33912 1.68713)
(378.585 -3.81196 1.39024)
(384.418 -5.57584 1.12306)
(391.525 -7.74198 0.875566)
(400.26 -10.4885 0.638205)
(411.111 -14.1167 0.401403)
(424.767 -19.1688 0.15353)
(441.955 -26.7051 -0.117965)
(465.707 -38.658 -0.364432)
(402.343 1.62543 -1.91059)
(399.006 2.47365 -3.07962)
(396.776 2.40587 -3.34762)
(395.379 1.92862 -3.22639)
(394.674 1.31505 -2.99752)
(394.571 0.648387 -2.75421)
(395.016 -0.0610967 -2.51869)
(395.986 -0.818415 -2.3005)
(397.48 -1.63232 -2.1092)
(399.523 -2.51982 -1.95024)
(402.182 -3.51018 -1.82436)
(405.563 -4.64411 -1.72975)
(409.804 -5.97506 -1.66631)
(415.086 -7.57605 -1.63719)
(421.654 -9.55499 -1.6481)
(429.845 -12.0825 -1.70695)
(440.132 -15.446 -1.82488)
(453.191 -20.1634 -2.01995)
(469.737 -27.2744 -2.31262)
(492.738 -38.5639 -2.67044)
(404.801 0.673435 0.38657)
(403.455 1.13149 0.650062)
(402.872 1.03202 0.825565)
(402.876 0.606919 0.902645)
(403.32 0.0649 0.892221)
(404.122 -0.513489 0.821073)
(405.271 -1.12335 0.715049)
(406.791 -1.77796 0.589059)
(408.717 -2.49084 0.449355)
(411.101 -3.2804 0.298475)
(414.027 -4.17543 0.137561)
(417.613 -5.21597 -0.0341027)
(422.008 -6.45465 -0.220075)
(427.401 -7.96308 -0.426998)
(434.041 -9.84641 -0.664357)
(442.266 -12.2706 -0.9447)
(452.554 -15.5164 -1.28494)
(465.584 -20.0915 -1.70926)
(482.059 -27.0292 -2.24961)
(504.948 -38.0661 -2.89579)
(405.208 0.664841 -0.134943)
(404.523 0.979557 -0.35984)
(404.589 0.752338 -0.62924)
(405.145 0.218696 -0.874059)
(406.083 -0.426136 -1.06052)
(407.345 -1.09353 -1.19337)
(408.926 -1.77076 -1.28735)
(410.852 -2.46911 -1.35606)
(413.156 -3.20327 -1.41089)
(415.891 -3.99411 -1.46219)
(419.145 -4.87346 -1.51957)
(423.034 -5.88422 -1.59163)
(427.71 -7.08079 -1.68652)
(433.364 -8.5354 -1.81319)
(440.246 -10.3527 -1.98278)
(448.699 -12.6971 -2.20992)
(459.204 -15.8466 -2.51409)
(472.448 -20.3042 -2.92163)
(489.134 -27.0987 -3.46785)
(512.307 -37.9539 -4.15875)
(405.199 0.776441 -0.133697)
(404.552 1.06382 -0.253826)
(404.705 0.796226 -0.344731)
(405.385 0.259022 -0.414092)
(406.489 -0.370053 -0.464755)
(407.959 -1.01615 -0.506366)
(409.777 -1.6695 -0.548041)
(411.955 -2.34192 -0.595847)
(414.519 -3.04898 -0.654423)
(417.518 -3.8125 -0.728323)
(421.033 -4.6647 -0.822131)
(425.181 -5.64804 -0.940318)
(430.112 -6.81579 -1.0879)
(436.019 -8.23859 -1.27184)
(443.155 -10.0192 -1.50251)
(451.869 -12.3202 -1.79471)
(462.647 -15.4169 -2.1685)
(476.187 -19.8091 -2.65037)
(493.194 -26.5212 -3.27488)
(516.778 -37.2707 -4.05353)
(405.19 0.823598 -0.111514)
(404.535 1.10483 -0.221892)
(404.709 0.807967 -0.316603)
(405.432 0.250809 -0.410651)
(406.595 -0.391378 -0.505746)
(408.136 -1.05122 -0.599824)
(410.038 -1.72014 -0.691856)
(412.312 -2.40812 -0.783118)
(414.983 -3.12879 -0.876673)
(418.099 -3.9024 -0.976414)
(421.742 -4.75995 -1.08662)
(426.027 -5.74295 -1.21219)
(431.105 -6.90386 -1.35931)
(437.17 -8.31255 -1.53631)
(444.479 -10.0711 -1.7545)
(453.385 -12.3409 -2.02877)
(464.381 -15.3964 -2.37828)
(478.173 -19.7348 -2.82739)
(495.473 -26.3785 -3.40701)
(519.466 -37.0434 -4.13142)
(405.184 0.845244 -0.0864821)
(404.515 1.13292 -0.175282)
(404.68 0.827993 -0.248839)
(405.403 0.265551 -0.315918)
(406.573 -0.374217 -0.380318)
(408.125 -1.02692 -0.442762)
(410.045 -1.68664 -0.503914)
(412.348 -2.36403 -0.565881)
(415.058 -3.0726 -0.631906)
(418.225 -3.83245 -0.705671)
(421.927 -4.67466 -0.79114)
(426.283 -5.64093 -0.89288)
(431.443 -6.78389 -1.01654)
(437.604 -8.1733 -1.16932)
(445.025 -9.91082 -1.36054)
(454.063 -12.1572 -1.60221)
(465.215 -15.1856 -1.90974)
(479.195 -19.4919 -2.30289)
(496.719 -26.0965 -2.80657)
(521.022 -36.7153 -3.43447)
(405.181 0.856607 -0.0614923)
(404.502 1.15057 -0.125905)
(404.657 0.842594 -0.179845)
(405.378 0.275217 -0.228569)
(406.549 -0.366614 -0.276469)
(408.107 -1.01896 -0.325678)
(410.036 -1.67768 -0.376749)
(412.351 -2.35414 -0.430403)
(415.079 -3.06172 -0.488252)
(418.268 -3.82018 -0.552658)
(421.999 -4.66034 -0.626449)
(426.391 -5.62376 -0.712912)
(431.596 -6.76284 -0.816039)
(437.81 -8.14697 -0.94089)
(445.298 -9.87721 -1.09406)
(454.416 -12.1137 -1.28421)
(465.668 -15.1287 -1.52264)
(479.772 -19.4173 -1.82392)
(497.449 -25.9993 -2.20637)
(521.975 -36.5932 -2.68238)
(405.179 0.862507 -0.036776)
(404.494 1.16055 -0.0756712)
(404.643 0.851702 -0.10866)
(405.361 0.281627 -0.138176)
(406.532 -0.361454 -0.166867)
(408.091 -1.01293 -0.196324)
(410.022 -1.66944 -0.22693)
(412.341 -2.34299 -0.259029)
(415.075 -3.04708 -0.293614)
(418.273 -3.80136 -0.332252)
(422.018 -4.63659 -0.376783)
(426.428 -5.59428 -0.429243)
(431.655 -6.72679 -0.49206)
(437.898 -8.10344 -0.568366)
(445.423 -9.82516 -0.662322)
(454.588 -12.0519 -0.779417)
(465.9 -15.0558 -0.926754)
(480.08 -19.3318 -1.11337)
(497.852 -25.8992 -1.3503)
(522.513 -36.4794 -1.64635)
(405.178 0.865046 -0.0123851)
(404.491 1.16505 -0.0254414)
(404.637 0.85607 -0.0366935)
(405.352 0.284815 -0.0467485)
(406.523 -0.359015 -0.0564831)
(408.083 -1.01033 -0.0665308)
(410.016 -1.66613 -0.0771133)
(412.336 -2.33878 -0.0883942)
(415.073 -3.04186 -0.10072)
(418.276 -3.79496 -0.114602)
(422.027 -4.62873 -0.130618)
(426.444 -5.58464 -0.149401)
(431.681 -6.71505 -0.17173)
(437.938 -8.08927 -0.198657)
(445.479 -9.80821 -0.231617)
(454.667 -12.0317 -0.272515)
(466.007 -15.032 -0.323792)
(480.223 -19.3035 -0.388511)
(498.042 -25.8655 -0.470326)
(522.771 -36.4417 -0.572683)
(405.178 0.865052 0.0118693)
(404.491 1.16505 0.0246906)
(404.637 0.856074 0.0354724)
(405.352 0.28482 0.045099)
(406.523 -0.359004 0.0544654)
(408.083 -1.01032 0.0641996)
(410.015 -1.66611 0.0745175)
(412.336 -2.33876 0.085576)
(415.073 -3.04184 0.0977098)
(418.276 -3.79495 0.111404)
(422.027 -4.62873 0.127201)
(426.444 -5.58465 0.14571)
(431.681 -6.71507 0.16772)
(437.938 -8.08929 0.194324)
(445.479 -9.80822 0.22699)
(454.667 -12.0317 0.267611)
(466.007 -15.0319 0.318568)
(480.223 -19.3034 0.382843)
(498.042 -25.8655 0.464039)
(522.771 -36.4417 0.565567)
(405.179 0.862528 0.0362646)
(404.494 1.16057 0.0749209)
(404.643 0.851733 0.107438)
(405.361 0.281659 0.136523)
(406.532 -0.361409 0.164848)
(408.091 -1.01288 0.193996)
(410.022 -1.6694 0.224333)
(412.34 -2.34296 0.256194)
(415.074 -3.04704 0.290574)
(418.273 -3.8013 0.329031)
(422.018 -4.63651 0.373375)
(426.427 -5.5942 0.425606)
(431.654 -6.72673 0.488147)
(437.898 -8.10341 0.56415)
(445.422 -9.82515 0.657797)
(454.587 -12.0519 0.77457)
(465.899 -15.0558 0.921533)
(480.079 -19.3317 1.10767)
(497.852 -25.8992 1.344)
(522.514 -36.4794 1.63932)
(405.181 0.856641 0.06099)
(404.502 1.15061 0.12515)
(404.657 0.842639 0.178611)
(405.378 0.275274 0.226903)
(406.549 -0.366525 0.274459)
(408.106 -1.01886 0.323404)
(410.035 -1.6776 0.374245)
(412.35 -2.3541 0.427661)
(415.078 -3.06169 0.485262)
(418.267 -3.82013 0.549417)
(421.998 -4.66026 0.622963)
(426.39 -5.62366 0.709204)
(431.595 -6.76273 0.812148)
(437.809 -8.14688 0.936849)
(445.297 -9.87715 1.08985)
(454.415 -12.1136 1.27975)
(465.668 -15.1287 1.51778)
(479.772 -19.4174 1.81852)
(497.449 -25.9994 2.20031)
(521.975 -36.5932 2.67562)
(405.184 0.845295 0.0860048)
(404.515 1.13298 0.174541)
(404.679 0.828078 0.247615)
(405.403 0.265664 0.314253)
(406.572 -0.374042 0.378305)
(408.124 -1.02671 0.440477)
(410.044 -1.68644 0.501398)
(412.347 -2.36387 0.56316)
(415.057 -3.07247 0.628986)
(418.223 -3.83236 0.702517)
(421.926 -4.67461 0.787698)
(426.281 -5.64091 0.889162)
(431.441 -6.78385 1.01265)
(437.602 -8.17322 1.16538)
(445.023 -9.91069 1.35658)
(454.061 -12.1571 1.59811)
(465.214 -15.1855 1.9053)
(479.194 -19.4918 2.2979)
(496.719 -26.0964 2.80092)
(521.022 -36.7153 3.42814)
(405.19 0.823675 0.111082)
(404.535 1.10493 0.221188)
(404.708 0.808109 0.315422)
(405.432 0.250998 0.409038)
(406.594 -0.391124 0.503777)
(408.135 -1.05096 0.597532)
(410.036 -1.71993 0.689257)
(412.31 -2.40794 0.780308)
(414.981 -3.12861 0.873788)
(418.098 -3.90224 0.973488)
(421.74 -4.75987 1.08357)
(426.025 -5.74297 1.20893)
(431.103 -6.90392 1.35585)
(437.168 -8.31257 1.53273)
(444.477 -10.071 1.75083)
(453.384 -12.3408 2.02495)
(464.38 -15.3962 2.37418)
(478.173 -19.7347 2.82289)
(495.473 -26.3784 3.40202)
(519.467 -37.0434 4.12594)
(405.199 0.776564 0.133339)
(404.552 1.06402 0.253215)
(404.705 0.796509 0.343622)
(405.384 0.259393 0.41249)
(406.488 -0.369606 0.462706)
(407.958 -1.01573 0.50397)
(409.776 -1.66921 0.545411)
(411.953 -2.34173 0.59309)
(414.517 -3.04882 0.65162)
(417.516 -3.81231 0.725488)
(421.031 -4.66451 0.819231)
(425.179 -5.6479 0.937322)
(430.11 -6.81572 1.08478)
(436.017 -8.23853 1.26857)
(443.153 -10.0191 1.49903)
(451.867 -12.32 1.79097)
(462.646 -15.4167 2.16452)
(476.187 -19.8088 2.64617)
(493.195 -26.5209 3.27048)
(516.779 -37.2704 4.04896)
(405.208 0.665024 0.134654)
(404.523 0.979839 0.359281)
(404.589 0.752741 0.628187)
(405.145 0.219184 0.872481)
(406.082 -0.42562 1.05841)
(407.343 -1.09309 1.19096)
(408.924 -1.77044 1.28498)
(410.85 -2.46892 1.35389)
(413.153 -3.2032 1.40873)
(415.889 -3.99409 1.45981)
(419.143 -4.87344 1.51697)
(423.032 -5.88417 1.58902)
(427.708 -7.08073 1.68403)
(433.362 -8.53536 1.81071)
(440.244 -10.3527 1.98008)
(448.698 -12.6971 2.20685)
(459.203 -15.8466 2.51068)
(472.448 -20.3041 2.91808)
(489.135 -27.0986 3.46434)
(512.309 -37.9536 4.15536)
(404.801 0.673711 -0.386824)
(403.455 1.13193 -0.650667)
(402.872 1.03264 -0.82675)
(402.875 0.607652 -0.90448)
(403.319 0.0656025 -0.894549)
(404.121 -0.512965 -0.823597)
(405.269 -1.12293 -0.717432)
(406.789 -1.77763 -0.59117)
(408.715 -2.49066 -0.451475)
(411.1 -3.28037 -0.300938)
(414.026 -4.17545 -0.140294)
(417.612 -5.21593 0.0314991)
(422.007 -6.45453 0.217874)
(427.4 -7.96296 0.425073)
(434.04 -9.84635 0.66232)
(442.266 -12.2706 0.942234)
(452.555 -15.5165 1.28204)
(465.585 -20.0915 1.70618)
(482.06 -27.0291 2.24671)
(504.95 -38.0656 2.89328)
(402.343 1.62577 1.91055)
(399.006 2.47421 3.0795)
(396.776 2.40668 3.34725)
(395.379 1.92964 3.22545)
(394.674 1.31616 2.99625)
(394.57 0.6493 2.75283)
(395.015 -0.0603698 2.51723)
(395.985 -0.817856 2.29899)
(397.48 -1.632 2.1075)
(399.523 -2.51972 1.94822)
(402.182 -3.51016 1.82218)
(405.562 -4.64403 1.72778)
(409.803 -5.97493 1.66482)
(415.086 -7.57596 1.63603)
(421.655 -9.55504 1.6469)
(429.846 -12.0827 1.70534)
(440.134 -15.4464 1.82279)
(453.193 -20.1637 2.01764)
(469.739 -27.2744 2.31046)
(492.741 -38.5635 2.66875)
(348.733 3.24619 -15.1744)
(350.885 4.7616 -11.366)
(352.866 4.89762 -8.88319)
(354.385 4.53019 -7.1597)
(355.796 3.99569 -5.86898)
(357.335 3.36745 -4.85871)
(359.106 2.65407 -4.05252)
(361.169 1.85889 -3.40081)
(363.577 0.981799 -2.86432)
(366.405 0.0104579 -2.41232)
(369.757 -1.08261 -2.0246)
(373.763 -2.33852 -1.68759)
(378.583 -3.81132 -1.39047)
(384.417 -5.57536 -1.12308)
(391.526 -7.74178 -0.875549)
(400.262 -10.4885 -0.638356)
(411.114 -14.117 -0.401797)
(424.77 -19.1691 -0.154087)
(441.958 -26.7052 0.117431)
(465.71 -38.6575 0.364108)
(348.486 -0.949776 15.1427)
(350.809 -1.92157 11.1851)
(353.246 -2.86582 8.52805)
(355.474 -3.70152 6.67515)
(357.612 -4.42833 5.3024)
(359.786 -5.10668 4.23765)
(362.093 -5.79618 3.39441)
(364.6 -6.54288 2.71999)
(367.36 -7.38911 2.1725)
(370.438 -8.3803 1.71931)
(373.94 -9.56839 1.33703)
(377.981 -11.0171 1.01021)
(382.698 -12.8079 0.726926)
(388.251 -15.0506 0.476148)
(394.838 -17.9004 0.247432)
(402.702 -21.5869 0.0307913)
(412.145 -26.4615 -0.184011)
(423.518 -33.0741 -0.408987)
(437.066 -42.3074 -0.657589)
(454.007 -55.3808 -0.897852)
(404.785 -0.818686 -0.95201)
(403.398 -1.54976 -1.71982)
(402.751 -2.20881 -1.94591)
(402.669 -2.80088 -1.86893)
(403.006 -3.35153 -1.70588)
(403.678 -3.90392 -1.54683)
(404.674 -4.50307 -1.40816)
(406.013 -5.18716 -1.29092)
(407.724 -5.99106 -1.19992)
(409.854 -6.95254 -1.13884)
(412.472 -8.11716 -1.1069)
(415.683 -9.54148 -1.10327)
(419.612 -11.2994 -1.12843)
(424.412 -13.4915 -1.18605)
(430.272 -16.2622 -1.28248)
(437.432 -19.8256 -1.42655)
(446.191 -24.5094 -1.63031)
(456.911 -30.831 -1.91172)
(469.85 -39.6287 -2.29109)
(486.24 -51.9752 -2.7388)
(433.134 -1.70182 1.28426)
(430.104 -2.68202 1.8135)
(427.826 -3.24658 1.91089)
(426.358 -3.66685 1.8331)
(425.576 -4.0467 1.66863)
(425.319 -4.43889 1.45347)
(425.522 -4.89016 1.21515)
(426.179 -5.44087 0.97125)
(427.301 -6.12597 0.728837)
(428.915 -6.98094 0.488983)
(431.078 -8.04777 0.250691)
(433.882 -9.37969 0.0116853)
(437.445 -11.0469 -0.233259)
(441.914 -13.146 -0.492511)
(447.471 -15.815 -0.777395)
(454.351 -19.2593 -1.10209)
(462.854 -23.7962 -1.48426)
(473.348 -29.9289 -1.94738)
(486.092 -38.4763 -2.51946)
(502.33 -50.4389 -3.18734)
(435.629 -2.35451 -0.160893)
(434.714 -3.55401 -0.274699)
(434.018 -4.10782 -0.433404)
(433.598 -4.47033 -0.591738)
(433.532 -4.79894 -0.706123)
(433.79 -5.14714 -0.783022)
(434.373 -5.55594 -0.839966)
(435.314 -6.06301 -0.889754)
(436.652 -6.70193 -0.941055)
(438.433 -7.5071 -1.00125)
(440.731 -8.51981 -1.07688)
(443.648 -9.79263 -1.17376)
(447.306 -11.3944 -1.29806)
(451.857 -13.419 -1.45758)
(457.488 -16.0015 -1.66274)
(464.44 -19.3434 -1.9272)
(473.018 -23.7567 -2.26888)
(483.6 -29.7376 -2.71117)
(496.449 -38.0954 -3.28315)
(512.854 -49.8043 -3.98263)
(435.699 -2.279 -0.217426)
(435.072 -3.53944 -0.282408)
(434.867 -4.15987 -0.298266)
(434.981 -4.5611 -0.326484)
(435.433 -4.91284 -0.359871)
(436.193 -5.27316 -0.395357)
(437.253 -5.68268 -0.437587)
(438.638 -6.1794 -0.491091)
(440.383 -6.79837 -0.559196)
(442.538 -7.57565 -0.645202)
(445.179 -8.55374 -0.752573)
(448.41 -9.78578 -0.884877)
(452.36 -11.3403 -1.04655)
(457.185 -13.3102 -1.24425)
(463.081 -15.8284 -1.48796)
(470.293 -19.0941 -1.79163)
(479.137 -23.4158 -2.17362)
(490.001 -29.2849 -2.65718)
(503.152 -37.5042 -3.27078)
(519.926 -49.0387 -4.0173)
(435.665 -2.18615 -0.146438)
(435.032 -3.47821 -0.241732)
(434.931 -4.15901 -0.301451)
(435.209 -4.59682 -0.371191)
(435.848 -4.96796 -0.452015)
(436.807 -5.34215 -0.534511)
(438.078 -5.76352 -0.61513)
(439.685 -6.26955 -0.695726)
(441.658 -6.89417 -0.780329)
(444.047 -7.67244 -0.873432)
(446.924 -8.64602 -0.97951)
(450.393 -9.86727 -1.10333)
(454.583 -11.4038 -1.25078)
(459.654 -13.3475 -1.42978)
(465.803 -15.8298 -1.65111)
(473.283 -19.0477 -1.9288)
(482.416 -23.3075 -2.28047)
(493.598 -29.0969 -2.72777)
(507.103 -37.2144 -3.29681)
(524.325 -48.6229 -3.99345)
(435.649 -2.14382 -0.101413)
(434.987 -3.43745 -0.188977)
(434.885 -4.14206 -0.247197)
(435.193 -4.59461 -0.300342)
(435.877 -4.9689 -0.357277)
(436.892 -5.34134 -0.416336)
(438.232 -5.7597 -0.475795)
(439.923 -6.26169 -0.537137)
(441.997 -6.88047 -0.603723)
(444.498 -7.65044 -0.679342)
(447.499 -8.61292 -0.767823)
(451.104 -9.82005 -0.87339)
(455.441 -11.3392 -1.00127)
(460.673 -13.2617 -1.15827)
(467 -15.7181 -1.35337)
(474.677 -18.9041 -1.5981)
(484.032 -23.1241 -1.90704)
(495.47 -28.8634 -2.29826)
(509.267 -36.9175 -2.79357)
(526.866 -48.2482 -3.39954)
(435.641 -2.12298 -0.0684498)
(434.96 -3.40995 -0.13379)
(434.845 -4.12357 -0.180246)
(435.156 -4.58549 -0.220024)
(435.853 -4.96342 -0.262116)
(436.885 -5.33562 -0.308339)
(438.249 -5.75255 -0.357534)
(439.97 -6.2528 -0.409576)
(442.081 -6.8693 -0.466031)
(444.629 -7.63604 -0.529395)
(447.686 -8.59409 -0.602526)
(451.356 -9.79544 -0.688621)
(455.77 -11.3073 -0.791538)
(461.09 -13.2204 -0.916248)
(467.519 -15.6647 -1.06929)
(475.317 -18.8351 -1.25921)
(484.813 -23.0348 -1.49696)
(496.419 -28.7478 -1.79623)
(510.417 -36.7679 -2.17354)
(528.285 -48.058 -2.63562)
(435.638 -2.11219 -0.0398446)
(434.946 -3.39347 -0.0794419)
(434.821 -4.11047 -0.108986)
(435.129 -4.57795 -0.133691)
(435.83 -4.95857 -0.158977)
(436.868 -5.33031 -0.186824)
(438.238 -5.74519 -0.216784)
(439.967 -6.24274 -0.248603)
(442.092 -6.85595 -0.283156)
(444.658 -7.61864 -0.322062)
(447.739 -8.57175 -0.367178)
(451.439 -9.76723 -0.420484)
(455.889 -11.2722 -0.484317)
(461.253 -13.1774 -0.561716)
(467.736 -15.6125 -0.656754)
(475.6 -18.772 -0.774804)
(485.177 -22.9586 -0.922745)
(496.882 -28.656 -1.10914)
(511 -36.6575 -1.34416)
(529.031 -47.9271 -1.63271)
(435.636 -2.10752 -0.013249)
(434.94 -3.38589 -0.0265453)
(434.81 -4.10393 -0.0368008)
(435.116 -4.5739 -0.0453443)
(435.818 -4.95595 -0.0539323)
(436.857 -5.32759 -0.0633949)
(438.23 -5.74153 -0.0736992)
(439.963 -6.23786 -0.0847833)
(442.092 -6.84965 -0.0969313)
(444.665 -7.61062 -0.110669)
(447.755 -8.56161 -0.126588)
(451.466 -9.75454 -0.145319)
(455.93 -11.2566 -0.167618)
(461.313 -13.1584 -0.194505)
(467.819 -15.5896 -0.22738)
(475.712 -18.7446 -0.268106)
(485.325 -22.9262 -0.319058)
(497.076 -28.6175 -0.383173)
(511.25 -36.6118 -0.463872)
(529.358 -47.8745 -0.563074)
(435.636 -2.10752 0.0127521)
(434.94 -3.38588 0.0258159)
(434.809 -4.10392 0.0356228)
(435.116 -4.57389 0.0437527)
(435.817 -4.95593 0.0519853)
(436.857 -5.32756 0.0611511)
(438.23 -5.74151 0.0712054)
(439.963 -6.23783 0.0820692)
(442.092 -6.84963 0.0940123)
(444.665 -7.6106 0.107544)
(447.755 -8.5616 0.123232)
(451.466 -9.75454 0.141687)
(455.93 -11.2566 0.163676)
(461.313 -13.1584 0.190251)
(467.819 -15.5896 0.222836)
(475.712 -18.7446 0.263274)
(485.325 -22.9261 0.313882)
(497.076 -28.6175 0.377521)
(511.25 -36.6118 0.45757)
(529.358 -47.8744 0.555943)
(435.638 -2.11217 0.0393523)
(434.946 -3.39345 0.0787147)
(434.82 -4.11044 0.107808)
(435.129 -4.5779 0.132096)
(435.829 -4.9585 0.15703)
(436.867 -5.33023 0.184587)
(438.237 -5.74512 0.214297)
(439.967 -6.24268 0.245885)
(442.091 -6.85589 0.280223)
(444.657 -7.61858 0.318927)
(447.738 -8.5717 0.363829)
(451.438 -9.76718 0.416886)
(455.888 -11.2722 0.480437)
(461.252 -13.1774 0.557547)
(467.735 -15.6125 0.652301)
(475.599 -18.7719 0.770052)
(485.176 -22.9586 0.917631)
(496.882 -28.656 1.10355)
(511 -36.6574 1.33794)
(529.031 -47.927 1.62573)
(435.641 -2.12294 0.0679647)
(434.96 -3.40991 0.133056)
(434.845 -4.12351 0.179053)
(435.156 -4.58539 0.21841)
(435.853 -4.9633 0.260169)
(436.885 -5.33549 0.306138)
(438.248 -5.75243 0.35511)
(439.969 -6.2527 0.40692)
(442.08 -6.86921 0.463132)
(444.628 -7.63596 0.526257)
(447.685 -8.59401 0.599154)
(451.355 -9.79536 0.68502)
(455.769 -11.3072 0.787729)
(461.089 -13.2203 0.912251)
(467.518 -15.6647 1.0651)