/*--------------------------------*- C++ -*----------------------------------*\
  =========                 |
  \\      /  F ield         | OpenFOAM: The Open Source CFD Toolbox
   \\    /   O peration     | Website:  https://openfoam.org
    \\  /    A nd           | Version:  10
     \\/     M anipulation  |
\*---------------------------------------------------------------------------*/
FoamFile
{
    format      ascii;
    class       volScalarField;
    location    "200";
    object      alphat;
}
// * * * * * * * * * * * * * * * * * * * * * * * * * * * * * * * * * * * * * //

dimensions      [1 -1 -1 0 0 0 0];

internalField   nonuniform List<scalar> 
112000
(
0.00276554
0.00278822
0.00281336
0.00284176
0.00287132
0.00290074
0.00292965
0.00295796
0.0029856
0.00301247
0.00303848
0.00306349
0.00308733
0.00310975
0.00313037
0.00314856
0.00316332
0.00317281
0.00317436
0.00315946
0.00277432
0.00283622
0.00289504
0.0029521
0.00300708
0.00305957
0.0031095
0.00315696
0.00320198
0.00324456
0.00328469
0.00332228
0.0033572
0.00338924
0.00341802
0.00344297
0.00346312
0.00347686
0.00348238
0.00347311
0.00278066
0.00285243
0.00292282
0.00299108
0.00305679
0.00311956
0.00317916
0.00323551
0.00328859
0.0033384
0.00338491
0.00342806
0.00346771
0.00350365
0.00353549
0.00356261
0.00358398
0.00359786
0.00360238
0.00359085
0.00278153
0.00285483
0.00292873
0.00300218
0.00307411
0.00314368
0.00321031
0.0032736
0.00333334
0.00338935
0.00344151
0.00348968
0.00353369
0.00357327
0.003608
0.00363719
0.00365972
0.00367365
0.00367677
0.00366167
0.00278134
0.00285492
0.00292982
0.00300498
0.00307911
0.00315123
0.00322069
0.00328706
0.00335002
0.00340934
0.00346482
0.00351627
0.00356346
0.00360607
0.00364361
0.00367534
0.00370004
0.00371559
0.0037195
0.00370372
0.00278104
0.00285458
0.00292958
0.00300504
0.0030797
0.00315262
0.0032232
0.00329097
0.00335561
0.00341684
0.00347439
0.00352803
0.00357747
0.00362233
0.00366208
0.00369592
0.00372255
0.00373976
0.0037449
0.0037295
0.00278077
0.00285427
0.00292925
0.00300475
0.00307951
0.00315261
0.00322344
0.00329159
0.0033567
0.0034185
0.00347675
0.00353119
0.00358153
0.00362739
0.00366822
0.0037032
0.00373102
0.00374943
0.00375572
0.00374124
0.00278057
0.00285405
0.002929
0.00300449
0.00307924
0.00315235
0.00322321
0.00329142
0.00335665
0.00341862
0.00347709
0.00353182
0.00358251
0.00362878
0.00367008
0.00370557
0.00373393
0.00375291
0.00375979
0.00374584
0.00278044
0.0028539
0.00292884
0.00300431
0.00307905
0.00315214
0.00322299
0.0032912
0.00335642
0.00341841
0.00347691
0.00353169
0.00358245
0.00362881
0.00367022
0.00370585
0.00373439
0.00375357
0.00376069
0.00374698
0.00278037
0.00285383
0.00292876
0.00300423
0.00307896
0.00315204
0.00322288
0.00329107
0.00335628
0.00341826
0.00347676
0.00353153
0.00358229
0.00362867
0.0036701
0.00370576
0.00373434
0.00375356
0.00376074
0.00374709
0.00278037
0.00285383
0.00292876
0.00300423
0.00307896
0.00315204
0.00322288
0.00329107
0.00335628
0.00341826
0.00347676
0.00353153
0.00358229
0.00362867
0.0036701
0.00370576
0.00373434
0.00375356
0.00376074
0.00374708
0.00278044
0.0028539
0.00292884
0.00300431
0.00307905
0.00315214
0.00322299
0.00329119
0.00335642
0.00341841
0.00347691
0.00353169
0.00358245
0.00362881
0.00367022
0.00370585
0.00373439
0.00375357
0.00376069
0.00374698
0.00278057
0.00285405
0.002929
0.00300449
0.00307924
0.00315234
0.00322321
0.00329142
0.00335665
0.00341862
0.00347709
0.00353182
0.00358251
0.00362878
0.00367007
0.00370556
0.00373393
0.00375291
0.00375979
0.00374583
0.00278077
0.00285427
0.00292925
0.00300475
0.00307951
0.00315261
0.00322344
0.00329159
0.0033567
0.0034185
0.00347675
0.00353119
0.00358153
0.00362739
0.00366822
0.0037032
0.00373102
0.00374942
0.00375571
0.00374123
0.00278104
0.00285458
0.00292958
0.00300504
0.0030797
0.00315262
0.00322319
0.00329097
0.00335561
0.00341684
0.00347439
0.00352803
0.00357747
0.00362233
0.00366208
0.00369591
0.00372254
0.00373975
0.00374489
0.00372949
0.00278134
0.00285492
0.00292982
0.00300498
0.00307911
0.00315123
0.00322069
0.00328706
0.00335002
0.00340934
0.00346482
0.00351627
0.00356346
0.00360607
0.00364361
0.00367534
0.00370003
0.00371558
0.00371949
0.00370371
0.00278153
0.00285483
0.00292873
0.00300218
0.00307411
0.00314368
0.0032103
0.0032736
0.00333334
0.00338935
0.00344151
0.00348968
0.00353369
0.00357327
0.003608
0.00363718
0.00365971
0.00367364
0.00367676
0.00366166
0.00278066
0.00285243
0.00292282
0.00299108
0.00305679
0.00311956
0.00317916
0.00323551
0.00328859
0.0033384
0.00338491
0.00342806
0.00346771
0.00350365
0.00353549
0.0035626
0.00358397
0.00359786
0.00360237
0.00359084
0.00277432
0.00283622
0.00289504
0.0029521
0.00300708
0.00305957
0.0031095
0.00315696
0.00320197
0.00324456
0.00328469
0.00332227
0.0033572
0.00338923
0.00341802
0.00344296
0.00346312
0.00347685
0.00348237
0.0034731
0.00276554
0.00278822
0.00281335
0.00284176
0.00287132
0.00290074
0.00292965
0.00295796
0.0029856
0.00301247
0.00303848
0.00306348
0.00308733
0.00310975
0.00313036
0.00314856
0.00316331
0.0031728
0.00317435
0.00315945
0.0027745
0.00283553
0.00289306
0.00294845
0.0030014
0.00305154
0.00309883
0.00314334
0.00318519
0.0032245
0.00326126
0.00329539
0.00332679
0.00335528
0.00338056
0.0034021
0.00341905
0.00342995
0.00343265
0.00342326
0.026165
0.023575
0.0218125
0.0204858
0.0194329
0.0185647
0.0178272
0.0171866
0.0166193
0.016106
0.0156372
0.0152057
0.0148066
0.0144366
0.0140944
0.0137808
0.0135
0.013262
0.0130995
0.0130402
0.0289353
0.0276345
0.0265155
0.0255052
0.0245917
0.0237638
0.023009
0.0223167
0.0216783
0.0210868
0.020537
0.0200248
0.019548
0.019106
0.0187003
0.0183361
0.0180243
0.0177866
0.0176821
0.0177623
0.0291418
0.0281216
0.0272693
0.0264871
0.0257556
0.0250666
0.0244137
0.0237925
0.0232004
0.0226354
0.0220964
0.0215828
0.0210947
0.0206335
0.0202024
0.0198079
0.019463
0.0191916
0.0190615
0.0191337
0.0291656
0.0282004
0.0274306
0.0267464
0.0261156
0.0255209
0.0249515
0.0244008
0.0238653
0.0233433
0.0228343
0.0223384
0.0218565
0.0213904
0.0209435
0.0205218
0.0201369
0.0198097
0.0196042
0.0195746
0.0291668
0.0282087
0.0274554
0.0267991
0.0262048
0.0256525
0.0251286
0.024624
0.0241332
0.0236528
0.0231809
0.0227166
0.02226
0.0218122
0.0213755
0.0209548
0.0205596
0.0202074
0.0199569
0.0198514
0.0291655
0.0282075
0.0274564
0.0268064
0.0262231
0.0256861
0.0251812
0.0246986
0.0242318
0.0237766
0.0233301
0.0228907
0.0224576
0.0220311
0.0216129
0.0212067
0.0208207
0.0204698
0.0202093
0.0200742
0.0291641
0.0282058
0.0274541
0.0268046
0.0262234
0.0256902
0.0251908
0.0247155
0.0242579
0.0238133
0.0233789
0.0229525
0.0225333
0.022121
0.0217169
0.0213243
0.0209505
0.0206094
0.0203547
0.0202171
0.0291631
0.0282046
0.0274524
0.0268025
0.0262214
0.0256889
0.0251909
0.0247177
0.024263
0.0238222
0.0233924
0.0229716
0.0225586
0.0221533
0.0217567
0.0213721
0.0210065
0.0206735
0.0204262
0.0202934
0.0291626
0.028204
0.0274515
0.0268014
0.0262201
0.0256877
0.0251899
0.0247171
0.0242631
0.0238233
0.0233949
0.0229757
0.0225648
0.022162
0.0217683
0.0213869
0.0210249
0.0206958
0.0204527
0.0203236
0.0291626
0.028204
0.0274515
0.0268014
0.0262201
0.0256877
0.0251899
0.0247171
0.0242631
0.0238233
0.0233949
0.0229757
0.0225648
0.022162
0.0217683
0.0213869
0.0210249
0.0206958
0.0204527
0.0203236
0.0291631
0.0282046
0.0274524
0.0268025
0.0262214
0.0256889
0.0251909
0.0247177
0.024263
0.0238222
0.0233924
0.0229716
0.0225586
0.0221533
0.0217567
0.0213721
0.0210065
0.0206735
0.0204262
0.0202934
0.0291641
0.0282058
0.0274541
0.0268046
0.0262234
0.0256902
0.0251908
0.0247155
0.0242578
0.0238133
0.0233789
0.0229525
0.0225333
0.022121
0.0217169
0.0213243
0.0209505
0.0206094
0.0203547
0.0202171
0.0291655
0.0282075
0.0274564
0.0268064
0.0262231
0.0256861
0.0251812
0.0246985
0.0242318
0.0237765
0.0233301
0.0228907
0.0224576
0.0220311
0.0216129
0.0212067
0.0208207
0.0204698
0.0202092
0.0200742
0.0291668
0.0282087
0.0274554
0.0267991
0.0262048
0.0256525
0.0251286
0.024624
0.0241332
0.0236528
0.0231809
0.0227166
0.02226
0.0218121
0.0213754
0.0209548
0.0205596
0.0202074
0.0199569
0.0198514
0.0291656
0.0282004
0.0274306
0.0267464
0.0261156
0.0255209
0.0249515
0.0244008
0.0238653
0.0233433
0.0228343
0.0223384
0.0218564
0.0213904
0.0209435
0.0205218
0.0201368
0.0198096
0.0196042
0.0195746
0.0291418
0.0281216
0.0272693
0.0264871
0.0257556
0.0250666
0.0244137
0.0237925
0.0232004
0.0226354
0.0220964
0.0215828
0.0210947
0.0206335
0.0202023
0.0198079
0.019463
0.0191916
0.0190615
0.0191336
0.0289353
0.0276345
0.0265155
0.0255052
0.0245917
0.0237638
0.023009
0.0223167
0.0216783
0.0210868
0.020537
0.0200248
0.019548
0.019106
0.0187003
0.018336
0.0180243
0.0177866
0.0176821
0.0177623
0.026165
0.023575
0.0218125
0.0204858
0.0194329
0.0185647
0.0178272
0.0171865
0.0166193
0.016106
0.0156371
0.0152057
0.0148066
0.0144366
0.0140944
0.0137808
0.0135
0.013262
0.0130995
0.0130402
0.00277449
0.00283553
0.00289306
0.00294845
0.0030014
0.00305154
0.00309883
0.00314334
0.00318519
0.0032245
0.00326126
0.00329539
0.00332679
0.00335528
0.00338056
0.00340209
0.00341905
0.00342995
0.00343264
0.00342325
0.0027821
0.00285346
0.00292303
0.00299009
0.00305423
0.00311509
0.00317248
0.00322635
0.00327672
0.00332364
0.00336736
0.00340781
0.0034449
0.00347847
0.00350829
0.00353397
0.00355492
0.0035702
0.00357854
0.00357815
0.0289712
0.0276867
0.0265781
0.0255744
0.0246642
0.023837
0.0230807
0.0223846
0.0217402
0.0211394
0.0205674
0.020023
0.0195051
0.0190133
0.0185488
0.0181133
0.0177123
0.017356
0.017067
0.0168573
0.033414
0.0335823
0.0336011
0.0334431
0.0331448
0.0327489
0.0322872
0.0317824
0.0312516
0.030706
0.0301525
0.0295998
0.0290553
0.0285263
0.028021
0.0275507
0.0271327
0.0267945
0.0265867
0.0265353
0.0338587
0.0344781
0.0349006
0.0351097
0.035138
0.0350265
0.0348092
0.0345124
0.0341571
0.03376
0.0333348
0.032893
0.032445
0.0320014
0.0315747
0.0311819
0.0308485
0.0306144
0.0305528
0.0307092
0.0339376
0.0347082
0.0352897
0.0356491
0.0358098
0.0358087
0.0356797
0.0354511
0.0351465
0.0347851
0.0343829
0.0339534
0.0335083
0.0330592
0.0326194
0.0322063
0.0318467
0.0315827
0.0314958
0.0316451
0.0339481
0.0347543
0.0353927
0.0358242
0.036064
0.0361414
0.0360849
0.0359192
0.035666
0.0353437
0.0349677
0.0345514
0.0341063
0.0336436
0.0331755
0.0327181
0.0322951
0.0319446
0.0317447
0.0317548
0.0339471
0.034758
0.0354098
0.0358652
0.0361382
0.036256
0.0362441
0.0361246
0.0359167
0.0356368
0.0352985
0.0349136
0.0344924
0.0340446
0.0335808
0.0331145
0.0326663
0.0322686
0.0319932
0.0318919
0.0339452
0.0347558
0.0354089
0.0358693
0.0361518
0.0362836
0.03629
0.0361923
0.036009
0.0357554
0.0354443
0.0350863
0.0346906
0.0342657
0.0338208
0.0333677
0.0329244
0.0325196
0.0322203
0.0320711
0.0339438
0.0347538
0.0354063
0.035867
0.0361513
0.0362868
0.0362989
0.0362092
0.0360358
0.0357941
0.0354966
0.0351535
0.0347735
0.0343647
0.0339355
0.0334969
0.0330655
0.0326683
0.0323695
0.0322092
0.0339431
0.0347529
0.0354049
0.0358652
0.0361497
0.0362859
0.0362993
0.0362117
0.0360414
0.0358036
0.0355109
0.0351736
0.0348002
0.0343985
0.033977
0.0335461
0.0331221
0.0327313
0.0324368
0.0322768
0.0339431
0.0347529
0.0354049
0.0358652
0.0361497
0.0362859
0.0362993
0.0362117
0.0360414
0.0358036
0.0355109
0.0351736
0.0348002
0.0343985
0.0339769
0.0335461
0.0331221
0.0327313
0.0324368
0.0322768
0.0339438
0.0347538
0.0354063
0.035867
0.0361513
0.0362868
0.0362989
0.0362092
0.0360358
0.0357941
0.0354966
0.0351535
0.0347735
0.0343647
0.0339355
0.0334969
0.0330655
0.0326683
0.0323695
0.0322092
0.0339452
0.0347558
0.0354089
0.0358693
0.0361518
0.0362836
0.03629
0.0361923
0.036009
0.0357554
0.0354443
0.0350863
0.0346906
0.0342657
0.0338208
0.0333677
0.0329244
0.0325196
0.0322203
0.0320711
0.0339471
0.034758
0.0354098
0.0358651
0.0361382
0.036256
0.0362441
0.0361246
0.0359167
0.0356367
0.0352985
0.0349136
0.0344924
0.0340446
0.0335808
0.0331145
0.0326662
0.0322685
0.0319931
0.0318919
0.0339481
0.0347543
0.0353927
0.0358242
0.036064
0.0361414
0.0360849
0.0359192
0.035666
0.0353437
0.0349677
0.0345514
0.0341063
0.0336435
0.0331755
0.0327181
0.0322951
0.0319445
0.0317447
0.0317548
0.0339376
0.0347082
0.0352897
0.0356491
0.0358097
0.0358087
0.0356797
0.0354511
0.0351465
0.0347851
0.0343829
0.0339534
0.0335083
0.0330592
0.0326193
0.0322063
0.0318467
0.0315826
0.0314957
0.031645
0.0338587
0.0344781
0.0349006
0.0351097
0.0351379
0.0350265
0.0348092
0.0345124
0.034157
0.03376
0.0333348
0.032893
0.032445
0.0320013
0.0315747
0.0311819
0.0308485
0.0306144
0.0305527
0.0307092
0.033414
0.0335823
0.0336011
0.0334431
0.0331448
0.0327489
0.0322872
0.0317824
0.0312516
0.030706
0.0301525
0.0295998
0.0290553
0.0285263
0.028021
0.0275507
0.0271328
0.0267946
0.0265867
0.0265353
0.0289712
0.0276867
0.0265781
0.0255744
0.0246642
0.023837
0.0230807
0.0223846
0.0217402
0.0211394
0.0205674
0.020023
0.0195051
0.0190133
0.0185488
0.0181133
0.0177123
0.017356
0.0170671
0.0168574
0.0027821
0.00285346
0.00292303
0.00299009
0.00305423
0.00311509
0.00317248
0.00322635
0.00327672
0.00332364
0.00336736
0.00340781
0.0034449
0.00347847
0.00350829
0.00353397
0.00355492
0.0035702
0.00357853
0.00357814
0.00278436
0.00285737
0.00293061
0.00300302
0.00307357
0.00314141
0.00320602
0.00326705
0.00332431
0.0033777
0.00342716
0.00347266
0.00351416
0.00355158
0.0035848
0.00361394
0.00363866
0.00365845
0.00367275
0.00368094
0.0291951
0.0281951
0.0273574
0.0265858
0.0258625
0.0251803
0.0245336
0.0239183
0.0233316
0.0227717
0.0222366
0.0217252
0.0212372
0.0207733
0.0203375
0.0199178
0.019521
0.0191585
0.0188477
0.0185993
0.0339081
0.0345449
0.0349805
0.0351996
0.0352357
0.0351304
0.0349175
0.0346232
0.034268
0.0338682
0.033437
0.0329857
0.0325247
0.0320626
0.0316031
0.0311597
0.0307512
0.0304046
0.0301586
0.0300377
0.0350997
0.0354158
0.0358425
0.0362823
0.0366774
0.0370035
0.0372501
0.037413
0.0374931
0.0374951
0.0374264
0.0372957
0.037113
0.0368913
0.0366463
0.0363987
0.0361776
0.0360243
0.0359986
0.036143
0.0353246
0.0357924
0.0362728
0.0367299
0.0371395
0.0374917
0.0377819
0.0380064
0.0381635
0.0382536
0.0382795
0.0382463
0.0381613
0.0380349
0.0378817
0.0377227
0.0375894
0.0375285
0.037612
0.0378975
0.0353718
0.0359385
0.0365105
0.0370422
0.037509
0.0379015
0.0382165
0.0384529
0.0386113
0.038694
0.038705
0.03865
0.0385363
0.0383737
0.0381757
0.037962
0.0377624
0.037623
0.0376192
0.037818
0.0353765
0.0359682
0.0365782
0.0371571
0.0376761
0.0381215
0.0384861
0.0387657
0.0389589
0.0390666
0.0390921
0.03904
0.0389168
0.0387312
0.0384949
0.0382251
0.0379482
0.0377055
0.0375688
0.0376052
0.0353747
0.03597
0.0365893
0.0371838
0.0377249
0.038198
0.0385943
0.0389078
0.0391351
0.0392755
0.0393305
0.0393032
0.0391984
0.0390229
0.0387865
0.0385035
0.0381968
0.0379024
0.0376867
0.0376119
0.0353728
0.0359683
0.0365887
0.0371866
0.0377339
0.0382166
0.0386259
0.0389556
0.0392016
0.0393625
0.0394389
0.039433
0.0393486
0.039191
0.0389685
0.0386937
0.0383868
0.0380804
0.0378365
0.0377125
0.0353719
0.0359671
0.0365875
0.0371857
0.0377341
0.0382193
0.0386325
0.0389674
0.0392203
0.0393895
0.0394754
0.0394798
0.0394061
0.0392592
0.0390466
0.0387801
0.0384787
0.0381732
0.0379237
0.0377848
0.0353719
0.0359671
0.0365875
0.0371857
0.0377341
0.0382193
0.0386325
0.0389674
0.0392203
0.0393895
0.0394754
0.0394798
0.0394061
0.0392592
0.0390466
0.0387801
0.0384787
0.0381732
0.0379237
0.0377848
0.0353728
0.0359683
0.0365887
0.0371866
0.0377339
0.0382166
0.0386259
0.0389555
0.0392015
0.0393625
0.0394389
0.039433
0.0393486
0.039191
0.0389685
0.0386937
0.0383868
0.0380804
0.0378365
0.0377125
0.0353746
0.03597
0.0365893
0.0371838
0.0377249
0.038198
0.0385943
0.0389078
0.0391351
0.0392755
0.0393305
0.0393032
0.0391984
0.0390229
0.0387864
0.0385035
0.0381968
0.0379024
0.0376867
0.0376118
0.0353765
0.0359682
0.0365782
0.0371571
0.0376761
0.0381215
0.0384861
0.0387657
0.0389589
0.0390666
0.039092
0.03904
0.0389168
0.0387312
0.0384948
0.038225
0.0379482
0.0377054
0.0375687
0.0376051
0.0353718
0.0359385
0.0365105
0.0370422
0.037509
0.0379015
0.0382165
0.0384529
0.0386113
0.038694
0.038705
0.03865
0.0385363
0.0383737
0.0381757
0.0379619
0.0377624
0.0376229
0.0376191
0.0378179
0.0353246
0.0357924
0.0362727
0.0367299
0.0371395
0.0374917
0.0377818
0.0380064
0.0381635
0.0382535
0.0382794
0.0382462
0.0381613
0.0380349
0.0378817
0.0377227
0.0375894
0.0375284
0.037612
0.0378974
0.0350997
0.0354158
0.0358425
0.0362823
0.0366774
0.0370035
0.03725
0.037413
0.0374931
0.037495
0.0374264
0.0372957
0.037113
0.0368913
0.0366462
0.0363986
0.0361776
0.0360243
0.0359986
0.0361429
0.0339081
0.0345449
0.0349805
0.0351996
0.0352357
0.0351304
0.0349175
0.0346232
0.034268
0.0338682
0.0334369
0.0329856
0.0325247
0.0320626
0.0316031
0.0311597
0.0307512
0.0304046
0.0301586
0.0300378
0.0291951
0.0281951
0.0273574
0.0265857
0.0258625
0.0251803
0.0245336
0.0239183
0.0233316
0.0227716
0.0222365
0.0217252
0.0212371
0.0207733
0.0203374
0.0199178
0.019521
0.0191585
0.0188477
0.0185994
0.00278435
0.00285737
0.00293061
0.00300302
0.00307357
0.00314142
0.00320602
0.00326705
0.00332431
0.0033777
0.00342716
0.00347266
0.00351416
0.00355158
0.0035848
0.00361394
0.00363866
0.00365845
0.00367275
0.00368093
0.00278587
0.00285927
0.00293367
0.00300801
0.003081
0.00315168
0.00321942
0.00328385
0.0033447
0.0034018
0.00345506
0.00350442
0.00354981
0.00359119
0.00362849
0.0036619
0.00369124
0.00371634
0.0037371
0.00375351
0.029237
0.0282933
0.0275405
0.0268703
0.0262517
0.0256689
0.0251118
0.0245749
0.0240551
0.0235512
0.023063
0.0225908
0.0221359
0.0217002
0.0212871
0.0208906
0.0205188
0.0201812
0.01989
0.0196523
0.0340162
0.0348158
0.035425
0.0358116
0.0359997
0.0360268
0.035927
0.0357286
0.0354551
0.0351258
0.0347565
0.0343608
0.0339503
0.0335371
0.0331317
0.032741
0.0323838
0.0320839
0.0318705
0.0317618
0.0353817
0.0358746
0.0363814
0.0368671
0.0373074
0.0376926
0.0380178
0.0382791
0.0384745
0.0386043
0.0386713
0.0386807
0.0386405
0.0385599
0.0384515
0.0383348
0.0382365
0.0381936
0.0382522
0.0384462
0.0362865
0.0363867
0.0365984
0.0368842
0.0372059
0.0375408
0.0378744
0.0381949
0.0384917
0.0387561
0.0389818
0.0391655
0.0393073
0.0394115
0.0394879
0.039554
0.0396376
0.0397799
0.0400369
0.0404545
0.0364647
0.0366973
0.0369493
0.0372202
0.0374978
0.0377737
0.0380421
0.0382972
0.0385326
0.0387416
0.0389191
0.0390614
0.0391677
0.0392406
0.0392881
0.0393257
0.0393801
0.0394927
0.039724
0.0401291
0.0364968
0.0368064
0.0371302
0.0374587
0.0377792
0.0380831
0.0383646
0.0386185
0.0388393
0.0390217
0.0391615
0.0392557
0.0393033
0.0393067
0.0392726
0.0392149
0.0391578
0.0391405
0.0392233
0.0394664
0.0364985
0.0368275
0.03718
0.0375431
0.0379016
0.0382442
0.0385624
0.0388483
0.0390947
0.0392949
0.0394434
0.0395362
0.0395711
0.0395491
0.039475
0.0393602
0.0392257
0.0391066
0.0390598
0.0391451
0.0364964
0.0368286
0.0371883
0.0375629
0.0379372
0.0382995
0.0386405
0.038951
0.0392223
0.0394464
0.0396164
0.0397266
0.0397737
0.0397567
0.0396788
0.0395489
0.0393851
0.0392188
0.0391029
0.0390946
0.0364951
0.0368275
0.0371886
0.0375658
0.0379444
0.0383131
0.0386626
0.0389835
0.0392667
0.0395036
0.0396865
0.0398093
0.0398676
0.0398595
0.039787
0.0396577
0.0394882
0.0393076
0.0391665
0.0391203
0.0364951
0.0368275
0.0371886
0.0375658
0.0379444
0.0383131
0.0386626
0.0389835
0.0392667
0.0395036
0.0396865
0.0398093
0.0398676
0.0398595
0.039787
0.0396577
0.0394882
0.0393076
0.0391665
0.0391203
0.0364964
0.0368286
0.0371883
0.0375629
0.0379372
0.0382995
0.0386405
0.038951
0.0392223
0.0394464
0.0396163
0.0397266
0.0397737
0.0397567
0.0396788
0.0395489
0.0393851
0.0392187
0.0391028
0.0390946
0.0364985
0.0368275
0.03718
0.0375431
0.0379016
0.0382442
0.0385624
0.0388483
0.0390947
0.0392949
0.0394434
0.0395361
0.0395711
0.039549
0.0394749
0.0393601
0.0392257
0.0391065
0.0390597
0.039145
0.0364968
0.0368064
0.0371302
0.0374586
0.0377792
0.0380831
0.0383646
0.0386185
0.0388393
0.0390217
0.0391615
0.0392556
0.0393033
0.0393067
0.0392726
0.0392148
0.0391578
0.0391404
0.0392232
0.0394662
0.0364647
0.0366973
0.0369492
0.0372201
0.0374978
0.0377737
0.0380421
0.0382972
0.0385325
0.0387416
0.0389191
0.0390614
0.0391676
0.0392405
0.039288
0.0393257
0.03938
0.0394926
0.0397238
0.040129
0.0362865
0.0363867
0.0365984
0.0368842
0.0372059
0.0375407
0.0378744
0.0381949
0.0384917
0.038756
0.0389817
0.0391655
0.0393072
0.0394114
0.0394878
0.0395539
0.0396375
0.0397798
0.0400368
0.0404543
0.0353817
0.0358746
0.0363814
0.0368671
0.0373074
0.0376926
0.0380177
0.0382791
0.0384745
0.0386042
0.0386712
0.0386807
0.0386404
0.0385598
0.0384514
0.0383347
0.0382365
0.0381935
0.0382521
0.0384461
0.0340162
0.0348158
0.035425
0.0358116
0.0359997
0.0360268
0.035927
0.0357286
0.0354551
0.0351257
0.0347565
0.0343607
0.0339503
0.033537
0.0331316
0.032741
0.0323838
0.0320839
0.0318705
0.0317619
0.029237
0.0282933
0.0275405
0.0268703
0.0262517
0.0256688
0.0251118
0.0245749
0.0240551
0.0235512
0.0230629
0.0225908
0.0221358
0.0217002
0.0212871
0.0208906
0.0205188
0.0201812
0.01989
0.0196523
0.00278587
0.00285927
0.00293367
0.00300801
0.003081
0.00315168
0.00321943
0.00328385
0.0033447
0.00340181
0.00345507
0.00350442
0.00354981
0.00359119
0.00362849
0.00366189
0.00369123
0.00371634
0.00373709
0.0037535
0.00278755
0.002861
0.00293566
0.00301053
0.00308436
0.0031562
0.00322549
0.00329181
0.00335488
0.0034145
0.00347052
0.00352284
0.00357139
0.00361614
0.00365703
0.00369406
0.00372728
0.00375705
0.00378352
0.00380699
0.0292586
0.0283213
0.0275855
0.0269441
0.0263635
0.0258251
0.0253164
0.0248296
0.0243599
0.023905
0.0234636
0.0230358
0.0226227
0.0222264
0.0218501
0.0214984
0.0211772
0.0208835
0.0206281
0.020418
0.0340521
0.0348903
0.0355616
0.0360275
0.0363043
0.0364222
0.0364106
0.0362951
0.036098
0.0358386
0.0355334
0.0351968
0.0348417
0.0344808
0.034127
0.0337958
0.0334992
0.033254
0.0330836
0.0330035
0.0354625
0.0360648
0.0366776
0.0372561
0.0377766
0.0382306
0.0386157
0.0389314
0.0391788
0.0393609
0.0394827
0.0395512
0.0395751
0.0395658
0.0395382
0.039509
0.0395015
0.0395471
0.0396823
0.0399345
0.0365234
0.0367779
0.0370538
0.0373523
0.0376626
0.0379776
0.0382926
0.0386029
0.0389028
0.0391866
0.0394498
0.0396899
0.0399069
0.0401048
0.0402916
0.0404827
0.0407018
0.0409836
0.0413712
0.0419005
0.0373229
0.0373215
0.0373938
0.0375235
0.0376877
0.0378718
0.0380684
0.0382725
0.0384794
0.0386843
0.0388833
0.0390734
0.0392536
0.0394263
0.0395982
0.0397829
0.0400035
0.040295
0.0407044
0.0412747
0.0374701
0.0375904
0.0377139
0.0378493
0.0379919
0.0381367
0.0382812
0.0384232
0.0385601
0.0386887
0.0388056
0.0389085
0.0389964
0.0390712
0.0391389
0.039212
0.0393125
0.0394746
0.0397466
0.0401774
0.0374934
0.0376768
0.0378601
0.0380444
0.0382245
0.0383958
0.0385551
0.0387002
0.0388286
0.0389372
0.0390229
0.0390831
0.0391165
0.0391239
0.0391102
0.0390862
0.0390717
0.0390988
0.0392148
0.0394709
0.0374939
0.0376932
0.0378997
0.0381111
0.0383208
0.0385221
0.0387099
0.03888
0.0390283
0.0391504
0.0392421
0.0392998
0.039321
0.0393053
0.0392561
0.0391823
0.0391016
0.0390436
0.0390534
0.0391825
0.0374925
0.0376945
0.0379069
0.038127
0.038348
0.0385629
0.038766
0.038952
0.0391155
0.0392514
0.0393544
0.0394199
0.0394444
0.0394266
0.0393688
0.0392787
0.0391726
0.0390782
0.0390395
0.0391073
0.0374925
0.0376945
0.0379069
0.038127
0.038348
0.0385629
0.038766
0.038952
0.0391155
0.0392514
0.0393544
0.0394199
0.0394444
0.0394266
0.0393688
0.0392787
0.0391726
0.0390782
0.0390395
0.0391072
0.0374939
0.0376932
0.0378997
0.0381111
0.0383208
0.0385221
0.0387099
0.03888
0.0390283
0.0391504
0.0392421
0.0392998
0.0393209
0.0393053
0.0392561
0.0391823
0.0391016
0.0390435
0.0390534
0.0391824
0.0374934
0.0376768
0.0378601
0.0380444
0.0382245
0.0383958
0.0385551
0.0387002
0.0388286
0.0389372
0.0390229
0.0390831
0.0391165
0.0391239
0.0391102
0.0390862
0.0390717
0.0390988
0.0392147
0.0394708
0.0374701
0.0375904
0.0377139
0.0378493
0.0379919
0.0381367
0.0382812
0.0384232
0.0385601
0.0386886
0.0388056
0.0389085
0.0389964
0.0390712
0.0391389
0.039212
0.0393124
0.0394744
0.0397465
0.0401773
0.0373229
0.0373215
0.0373938
0.0375235
0.0376877
0.0378718
0.0380684
0.0382725
0.0384794
0.0386843
0.0388833
0.0390733
0.0392536
0.0394263
0.0395981
0.0397828
0.0400034
0.0402948
0.0407042
0.0412745
0.0365234
0.0367779
0.0370538
0.0373522
0.0376626
0.0379776
0.0382926
0.0386029
0.0389028
0.0391865
0.0394498
0.0396898
0.0399069
0.0401047
0.0402915
0.0404825
0.0407017
0.0409834
0.041371
0.0419003
0.0354625
0.0360648
0.0366776
0.0372561
0.0377766
0.0382306
0.0386157
0.0389314
0.0391787
0.0393608
0.0394827
0.0395511
0.039575
0.0395657
0.0395381
0.0395089
0.0395014
0.039547
0.0396822
0.0399344
0.034052
0.0348903
0.0355616
0.0360275
0.0363043
0.0364222
0.0364106
0.0362951
0.036098
0.0358386
0.0355333
0.0351967
0.0348417
0.0344807
0.034127
0.0337958
0.0334991
0.0332539
0.0330835
0.0330035
0.0292586
0.0283213
0.0275855
0.026944
0.0263634
0.025825
0.0253164
0.0248295
0.0243599
0.0239049
0.0234635
0.0230358
0.0226227
0.0222263
0.02185
0.0214983
0.0211771
0.0208835
0.0206281
0.020418
0.00278755
0.002861
0.00293566
0.00301054
0.00308436
0.00315621
0.00322549
0.00329181
0.00335489
0.0034145
0.00347052
0.00352284
0.00357139
0.00361614
0.00365703
0.00369406
0.00372728
0.00375704
0.00378351
0.00380698
0.00278949
0.00286299
0.0029378
0.00301296
0.00308722
0.00315967
0.00322974
0.00329705
0.00336132
0.00342236
0.00348005
0.00353431
0.00358509
0.00363239
0.00367623
0.00371664
0.00375372
0.00378784
0.00381944
0.00384897
0.02928
0.0283423
0.0276089
0.0269749
0.0264072
0.0258866
0.0254001
0.0249391
0.0244981
0.0240739
0.0236648
0.0232703
0.0228912
0.0225291
0.0221871
0.0218697
0.0215831
0.0213288
0.0211111
0.0209364
0.0340781
0.0349223
0.0356092
0.0361026
0.0364175
0.0365822
0.0366233
0.0365643
0.0364255
0.0362249
0.0359782
0.0356992
0.0354007
0.035095
0.0347951
0.0345153
0.0342725
0.0340796
0.0339532
0.033908
0.0354971
0.0361269
0.0367828
0.0374165
0.0380003
0.0385222
0.0389764
0.0393602
0.039674
0.0399207
0.0401059
0.0402372
0.0403243
0.0403794
0.0404176
0.0404578
0.0405221
0.0406356
0.0408289
0.0411267
0.0365927
0.0369335
0.0372938
0.0376666
0.0380414
0.0384117
0.0387741
0.0391258
0.0394637
0.0397849
0.0400878
0.0403723
0.0406406
0.0408982
0.0411545
0.0414246
0.0417298
0.0420997
0.0425698
0.0431708
0.0375299
0.0376695
0.0378138
0.0379734
0.0381452
0.0383258
0.0385139
0.0387092
0.0389105
0.0391165
0.0393259
0.0395382
0.0397548
0.0399795
0.0402204
0.0404908
0.0408119
0.041214
0.0417353
0.0424121
0.0382393
0.0381943
0.0382012
0.0382499
0.0383248
0.0384144
0.0385127
0.0386166
0.038724
0.038833
0.0389426
0.0390527
0.0391647
0.0392826
0.0394142
0.0395729
0.0397798
0.0400656
0.0404709
0.0410371
0.0383639
0.0384277
0.038487
0.0385517
0.0386204
0.0386895
0.0387566
0.03882
0.0388785
0.0389305
0.0389748
0.0390109
0.0390398
0.0390646
0.0390924
0.0391354
0.0392139
0.039358
0.0396088
0.0400109
0.0383821
0.0384993
0.0386091
0.0387152
0.0388162
0.0389086
0.0389896
0.0390575
0.0391107
0.0391478
0.0391677
0.0391694
0.0391536
0.039123
0.0390836
0.039047
0.0390322
0.0390687
0.0391973
0.0394644
0.038383
0.0385132
0.0386412
0.0387677
0.0388899
0.0390029
0.0391022
0.0391845
0.0392474
0.0392888
0.0393069
0.0393006
0.03927
0.0392174
0.0391485
0.0390743
0.0390134
0.0389946
0.0390586
0.0392529
0.038383
0.0385132
0.0386412
0.0387677
0.0388899
0.0390029
0.0391021
0.0391845
0.0392474
0.0392888
0.0393069
0.0393006
0.03927
0.0392174
0.0391485
0.0390743
0.0390134
0.0389946
0.0390585
0.0392529
0.0383821
0.0384993
0.0386091
0.0387152
0.0388162
0.0389086
0.0389896
0.0390575
0.0391107
0.0391478
0.0391676
0.0391694
0.0391536
0.0391229
0.0390836
0.039047
0.0390322
0.0390687
0.0391972
0.0394644
0.0383639
0.0384277
0.038487
0.0385517
0.0386204
0.0386895
0.0387566
0.03882
0.0388785
0.0389305
0.0389748
0.0390109
0.0390397
0.0390646
0.0390923
0.0391354
0.0392138
0.0393579
0.0396087
0.0400107
0.0382393
0.0381943
0.0382012
0.0382499
0.0383248
0.0384144
0.0385127
0.0386166
0.0387239
0.038833
0.0389426
0.0390526
0.0391646
0.0392825
0.0394141
0.0395729
0.0397797
0.0400655
0.0404708
0.0410368
0.0375299
0.0376694
0.0378138
0.0379734
0.0381452
0.0383258
0.0385139
0.0387092
0.0389105
0.0391165
0.0393258
0.0395382
0.0397547
0.0399794
0.0402203
0.0404907
0.0408118
0.0412138
0.0417351
0.0424118
0.0365927
0.0369335
0.0372938
0.0376666
0.0380414
0.0384117
0.0387741
0.0391258
0.0394636
0.0397849
0.0400877
0.0403722
0.0406405
0.0408981
0.0411544
0.0414245
0.0417297
0.0420995
0.0425696
0.0431706
0.0354971
0.0361269
0.0367828
0.0374165
0.0380003
0.0385222
0.0389763
0.0393602
0.0396739
0.0399207
0.0401059
0.0402371
0.0403242
0.0403793
0.0404175
0.0404576
0.040522
0.0406355
0.0408288
0.0411265
0.0340781
0.0349223
0.0356092
0.0361026
0.0364175
0.0365822
0.0366233
0.0365642
0.0364255
0.0362249
0.0359782
0.0356992
0.0354006
0.0350949
0.034795
0.0345153
0.0342724
0.0340795
0.0339531
0.033908
0.02928
0.0283423
0.0276089
0.0269749
0.0264072
0.0258866
0.0254001
0.0249391
0.0244981
0.0240739
0.0236647
0.0232703
0.0228911
0.022529
0.022187
0.0218697
0.021583
0.0213288
0.021111
0.0209364
0.00278949
0.00286299
0.0029378
0.00301296
0.00308722
0.00315967
0.00322974
0.00329705
0.00336132
0.00342236
0.00348005
0.00353431
0.00358509
0.00363239
0.00367623
0.00371664
0.00375372
0.00378784
0.00381943
0.00384896
0.00279166
0.00286524
0.00294019
0.00301559
0.0030902
0.0031631
0.00323376
0.00330181
0.003367
0.00342917
0.0034882
0.00354405
0.0035967
0.00364619
0.00369256
0.00373593
0.00377644
0.0038143
0.00385014
0.00388455
0.0293034
0.0283647
0.0276312
0.026999
0.0264355
0.0259217
0.0254446
0.0249956
0.0245692
0.0241623
0.0237729
0.0234005
0.0230457
0.0227099
0.022396
0.022108
0.0218515
0.0216335
0.0214541
0.021317
0.0341053
0.03495
0.0356402
0.0361415
0.0364697
0.0366533
0.0367187
0.0366887
0.0365833
0.0364199
0.0362135
0.0359773
0.0357236
0.0354643
0.0352114
0.0349785
0.0347804
0.0346338
0.0345518
0.0345456
0.0355259
0.0361603
0.0368276
0.0374809
0.0380927
0.0386502
0.0391465
0.0395777
0.0399429
0.0402443
0.0404866
0.040677
0.0408249
0.040942
0.0410429
0.0411453
0.0412706
0.0414444
0.0416893
0.0420302
0.0366278
0.03699
0.0373836
0.0377981
0.0382212
0.0386442
0.0390617
0.0394693
0.0398635
0.0402413
0.0406014
0.0409446
0.0412737
0.0415948
0.0419178
0.0422574
0.0426336
0.0430723