/*--------------------------------*- C++ -*----------------------------------*\
  =========                 |
  \\      /  F ield         | OpenFOAM: The Open Source CFD Toolbox
   \\    /   O peration     | Website:  https://openfoam.org
    \\  /    A nd           | Version:  10
     \\/     M anipulation  |
\*---------------------------------------------------------------------------*/
FoamFile
{
    format      ascii;
    class       volScalarField;
    location    "200";
    object      epsilon;
}
// * * * * * * * * * * * * * * * * * * * * * * * * * * * * * * * * * * * * * //

dimensions      [0 2 -3 0 0 0 0];

internalField   nonuniform List<scalar> 
112000
(
3.17906e+06
3.28846e+06
3.40382e+06
3.52407e+06
3.64737e+06
3.77297e+06
3.90084e+06
4.03117e+06
4.16423e+06
4.3004e+06
4.44021e+06
4.5843e+06
4.73354e+06
4.88896e+06
5.05185e+06
5.2237e+06
5.40628e+06
5.60121e+06
5.81557e+06
5.99829e+06
3.28557e+06
3.51324e+06
3.74295e+06
3.97463e+06
4.20696e+06
4.43925e+06
4.67136e+06
4.90333e+06
5.13531e+06
5.36751e+06
5.60036e+06
5.83449e+06
6.07076e+06
6.31036e+06
6.55485e+06
6.80631e+06
7.06778e+06
7.34359e+06
7.65142e+06
7.94066e+06
3.29927e+06
3.56048e+06
3.83341e+06
4.11368e+06
4.39793e+06
4.68381e+06
4.96982e+06
5.25505e+06
5.53896e+06
5.82136e+06
6.10232e+06
6.38224e+06
6.6618e+06
6.94199e+06
7.22423e+06
7.51047e+06
7.80362e+06
8.10785e+06
8.44284e+06
8.75068e+06
3.3021e+06
3.57238e+06
3.86205e+06
4.16594e+06
4.47957e+06
4.7994e+06
5.12262e+06
5.44707e+06
5.77111e+06
6.09359e+06
6.41381e+06
6.73152e+06
7.04686e+06
7.36041e+06
7.67316e+06
7.98665e+06
8.30318e+06
8.62589e+06
8.97364e+06
9.27745e+06
3.30232e+06
3.57389e+06
3.86713e+06
4.17718e+06
4.49963e+06
4.83097e+06
5.16833e+06
5.50932e+06
5.85202e+06
6.19493e+06
6.53703e+06
6.87772e+06
7.21685e+06
7.55468e+06
7.89192e+06
8.22977e+06
8.57013e+06
8.91532e+06
9.28336e+06
9.59686e+06
3.30226e+06
3.57375e+06
3.86742e+06
4.17881e+06
4.50383e+06
4.83929e+06
5.18259e+06
5.53147e+06
5.884e+06
6.23862e+06
6.59413e+06
6.94975e+06
7.3051e+06
7.66022e+06
8.01561e+06
8.37226e+06
8.73185e+06
9.09631e+06
9.48353e+06
9.81036e+06
3.30223e+06
3.57356e+06
3.86713e+06
4.17858e+06
4.50392e+06
4.84005e+06
5.18449e+06
5.53511e+06
5.89011e+06
6.248e+06
6.6077e+06
6.96851e+06
7.33011e+06
7.69262e+06
8.05658e+06
8.42307e+06
8.79384e+06
9.1709e+06
9.57246e+06
9.91303e+06
3.30221e+06
3.57346e+06
3.8669e+06
4.17825e+06
4.50353e+06
4.8397e+06
5.18433e+06
5.53536e+06
5.89106e+06
6.25006e+06
6.61131e+06
6.97419e+06
7.33845e+06
7.70424e+06
8.07218e+06
8.44342e+06
8.81981e+06
9.2035e+06
9.61309e+06
9.96202e+06
3.30221e+06
3.5734e+06
3.86677e+06
4.17805e+06
4.50325e+06
4.83933e+06
5.18389e+06
5.53488e+06
5.8906e+06
6.2497e+06
6.61117e+06
6.97443e+06
7.33926e+06
7.7059e+06
8.07501e+06
8.44783e+06
8.82631e+06
9.21275e+06
9.62603e+06
9.97937e+06
3.3022e+06
3.57338e+06
3.86672e+06
4.17795e+06
4.50311e+06
4.83914e+06
5.18365e+06
5.53459e+06
5.89027e+06
6.24935e+06
6.61084e+06
6.97416e+06
7.33914e+06
7.70601e+06
8.07547e+06
8.4488e+06
8.82798e+06
9.21537e+06
9.63e+06
9.98502e+06
3.3022e+06
3.57338e+06
3.86672e+06
4.17795e+06
4.50311e+06
4.83914e+06
5.18365e+06
5.53459e+06
5.89027e+06
6.24934e+06
6.61084e+06
6.97416e+06
7.33914e+06
7.706e+06
8.07547e+06
8.44879e+06
8.82798e+06
9.21537e+06
9.63e+06
9.98502e+06
3.30221e+06
3.5734e+06
3.86677e+06
4.17805e+06
4.50325e+06
4.83933e+06
5.18389e+06
5.53488e+06
5.8906e+06
6.2497e+06
6.61117e+06
6.97443e+06
7.33926e+06
7.7059e+06
8.07501e+06
8.44783e+06
8.82631e+06
9.21274e+06
9.62603e+06
9.97937e+06
3.30221e+06
3.57346e+06
3.8669e+06
4.17825e+06
4.50353e+06
4.8397e+06
5.18432e+06
5.53536e+06
5.89106e+06
6.25006e+06
6.61131e+06
6.97419e+06
7.33844e+06
7.70423e+06
8.07218e+06
8.44342e+06
8.81981e+06
9.2035e+06
9.61309e+06
9.96201e+06
3.30223e+06
3.57356e+06
3.86713e+06
4.17858e+06
4.50392e+06
4.84005e+06
5.18449e+06
5.53511e+06
5.8901e+06
6.248e+06
6.6077e+06
6.96851e+06
7.33011e+06
7.69261e+06
8.05658e+06
8.42307e+06
8.79384e+06
9.1709e+06
9.57246e+06
9.91303e+06
3.30226e+06
3.57375e+06
3.86742e+06
4.17881e+06
4.50383e+06
4.83929e+06
5.18259e+06
5.53147e+06
5.884e+06
6.23862e+06
6.59413e+06
6.94975e+06
7.30509e+06
7.66022e+06
8.01561e+06
8.37226e+06
8.73185e+06
9.09631e+06
9.48352e+06
9.81035e+06
3.30232e+06
3.57389e+06
3.86713e+06
4.17718e+06
4.49963e+06
4.83097e+06
5.16832e+06
5.50932e+06
5.85202e+06
6.19493e+06
6.53703e+06
6.87772e+06
7.21685e+06
7.55468e+06
7.89191e+06
8.22977e+06
8.57013e+06
8.91531e+06
9.28336e+06
9.59685e+06
3.3021e+06
3.57238e+06
3.86205e+06
4.16594e+06
4.47957e+06
4.7994e+06
5.12262e+06
5.44707e+06
5.77111e+06
6.09358e+06
6.41381e+06
6.73151e+06
7.04686e+06
7.36041e+06
7.67316e+06
7.98664e+06
8.30318e+06
8.62588e+06
8.97364e+06
9.27744e+06
3.29927e+06
3.56048e+06
3.83341e+06
4.11368e+06
4.39793e+06
4.6838e+06
4.96982e+06
5.25505e+06
5.53896e+06
5.82136e+06
6.10232e+06
6.38224e+06
6.66179e+06
6.94199e+06
7.22422e+06
7.51047e+06
7.80361e+06
8.10784e+06
8.44283e+06
8.75067e+06
3.28557e+06
3.51324e+06
3.74295e+06
3.97463e+06
4.20696e+06
4.43925e+06
4.67136e+06
4.90333e+06
5.1353e+06
5.36751e+06
5.60036e+06
5.83448e+06
6.07076e+06
6.31036e+06
6.55484e+06
6.80631e+06
7.06777e+06
7.34359e+06
7.65142e+06
7.94065e+06
3.17906e+06
3.28846e+06
3.40382e+06
3.52407e+06
3.64737e+06
3.77297e+06
3.90084e+06
4.03117e+06
4.16423e+06
4.3004e+06
4.4402e+06
4.5843e+06
4.73354e+06
4.88896e+06
5.05184e+06
5.22369e+06
5.40628e+06
5.6012e+06
5.81556e+06
5.99828e+06
3.2843e+06
3.50865e+06
3.73302e+06
3.95733e+06
4.18023e+06
4.40097e+06
4.61929e+06
4.83518e+06
5.04885e+06
5.26108e+06
5.47214e+06
5.68253e+06
5.89303e+06
6.10468e+06
6.31887e+06
6.5373e+06
6.76199e+06
6.995e+06
7.24186e+06
7.48294e+06
779672
1.02086e+06
1.23284e+06
1.42587e+06
1.60536e+06
1.77328e+06
1.93042e+06
2.07732e+06
2.21446e+06
2.34249e+06
2.46165e+06
2.57229e+06
2.67496e+06
2.77053e+06
2.86044e+06
2.94717e+06
3.03522e+06
3.13266e+06
3.2645e+06
3.44339e+06
731317
944142
1.13398e+06
1.30584e+06
1.46379e+06
1.60989e+06
1.74511e+06
1.87005e+06
1.9851e+06
2.09054e+06
2.18658e+06
2.2734e+06
2.35126e+06
2.42059e+06
2.48221e+06
2.53771e+06
2.59021e+06
2.64563e+06
2.72578e+06
2.84081e+06
736590
959945
1.16414e+06
1.35175e+06
1.52511e+06
1.68533e+06
1.83282e+06
1.96783e+06
2.09054e+06
2.20112e+06
2.29969e+06
2.38638e+06
2.46132e+06
2.52477e+06
2.57721e+06
2.61968e+06
2.65434e+06
2.68534e+06
2.73195e+06
2.79858e+06
738451
964817
1.17532e+06
1.37266e+06
1.5584e+06
1.73278e+06
1.8955e+06
2.0461e+06
2.1842e+06
2.30943e+06
2.4215e+06
2.52014e+06
2.60515e+06
2.67644e+06
2.73409e+06
2.77862e+06
2.81141e+06
2.83524e+06
2.86769e+06
2.90721e+06
738893
965360
1.17665e+06
1.37603e+06
1.56518e+06
1.74433e+06
1.91312e+06
2.07098e+06
2.21735e+06
2.35165e+06
2.47329e+06
2.58174e+06
2.67649e+06
2.75713e+06
2.82339e+06
2.87536e+06
2.91386e+06
2.94074e+06
2.9727e+06
3.00385e+06
739108
965506
1.17676e+06
1.37647e+06
1.56649e+06
1.74714e+06
1.9181e+06
2.07885e+06
2.22882e+06
2.36741e+06
2.49397e+06
2.60788e+06
2.70852e+06
2.79535e+06
2.86795e+06
2.9262e+06
2.97068e+06
3.00276e+06
3.03884e+06
3.07035e+06
739236
965602
1.17674e+06
1.37637e+06
1.56646e+06
1.74736e+06
1.91876e+06
2.08021e+06
2.23117e+06
2.37108e+06
2.49932e+06
2.61527e+06
2.71832e+06
2.80792e+06
2.88362e+06
2.94525e+06
2.99332e+06
3.02906e+06
3.06889e+06
3.10293e+06
739310
965670
1.17673e+06
1.37629e+06
1.56635e+06
1.74726e+06
1.91876e+06
2.0804e+06
2.23166e+06
2.372e+06
2.50083e+06
2.61755e+06
2.72157e+06
2.81233e+06
2.8894e+06
2.95264e+06
3.00254e+06
3.04033e+06
3.08251e+06
3.11865e+06
739343
965705
1.17674e+06
1.37626e+06
1.56628e+06
1.74719e+06
1.91869e+06
2.08036e+06
2.23167e+06
2.3721e+06
2.50107e+06
2.61799e+06
2.72226e+06
2.81337e+06
2.89088e+06
2.95466e+06
3.00523e+06
3.04381e+06
3.08701e+06
3.12418e+06
739343
965705
1.17674e+06
1.37626e+06
1.56628e+06
1.74719e+06
1.91869e+06
2.08036e+06
2.23167e+06
2.3721e+06
2.50107e+06
2.61799e+06
2.72226e+06
2.81337e+06
2.89088e+06
2.95466e+06
3.00523e+06
3.04381e+06
3.08701e+06
3.12418e+06
739310
965670
1.17673e+06
1.37629e+06
1.56635e+06
1.74726e+06
1.91876e+06
2.0804e+06
2.23166e+06
2.372e+06
2.50083e+06
2.61755e+06
2.72157e+06
2.81233e+06
2.8894e+06
2.95264e+06
3.00254e+06
3.04033e+06
3.08252e+06
3.11865e+06
739236
965602
1.17674e+06
1.37637e+06
1.56646e+06
1.74736e+06
1.91876e+06
2.08021e+06
2.23117e+06
2.37108e+06
2.49932e+06
2.61527e+06
2.71832e+06
2.80792e+06
2.88362e+06
2.94525e+06
2.99332e+06
3.02906e+06
3.06889e+06
3.10294e+06
739108
965506
1.17676e+06
1.37647e+06
1.56649e+06
1.74714e+06
1.9181e+06
2.07885e+06
2.22882e+06
2.3674e+06
2.49397e+06
2.60788e+06
2.70852e+06
2.79535e+06
2.86795e+06
2.9262e+06
2.97068e+06
3.00276e+06
3.03884e+06
3.07035e+06
738893
965360
1.17665e+06
1.37603e+06
1.56518e+06
1.74433e+06
1.91312e+06
2.07098e+06
2.21735e+06
2.35165e+06
2.47329e+06
2.58174e+06
2.67649e+06
2.75713e+06
2.82339e+06
2.87536e+06
2.91386e+06
2.94074e+06
2.97271e+06
3.00386e+06
738451
964817
1.17532e+06
1.37266e+06
1.5584e+06
1.73278e+06
1.8955e+06
2.0461e+06
2.1842e+06
2.30943e+06
2.4215e+06
2.52014e+06
2.60515e+06
2.67644e+06
2.73409e+06
2.77862e+06
2.81141e+06
2.83524e+06
2.86769e+06
2.90722e+06
736590
959945
1.16414e+06
1.35175e+06
1.52511e+06
1.68533e+06
1.83282e+06
1.96783e+06
2.09054e+06
2.20112e+06
2.29969e+06
2.38638e+06
2.46132e+06
2.52477e+06
2.57721e+06
2.61968e+06
2.65434e+06
2.68534e+06
2.73195e+06
2.79858e+06
731317
944142
1.13398e+06
1.30584e+06
1.46379e+06
1.60989e+06
1.74511e+06
1.87005e+06
1.98509e+06
2.09054e+06
2.18658e+06
2.2734e+06
2.35125e+06
2.42058e+06
2.4822e+06
2.5377e+06
2.5902e+06
2.64562e+06
2.72577e+06
2.84081e+06
779672
1.02086e+06
1.23284e+06
1.42587e+06
1.60536e+06
1.77328e+06
1.93042e+06
2.07733e+06
2.21446e+06
2.34249e+06
2.46165e+06
2.57229e+06
2.67496e+06
2.77052e+06
2.86043e+06
2.94716e+06
3.03521e+06
3.13265e+06
3.26448e+06
3.44337e+06
3.2843e+06
3.50865e+06
3.73303e+06
3.95734e+06
4.18024e+06
4.40098e+06
4.6193e+06
4.8352e+06
5.04886e+06
5.26109e+06
5.47215e+06
5.68254e+06
5.89304e+06
6.1047e+06
6.31889e+06
6.53731e+06
6.762e+06
6.99501e+06
7.24187e+06
7.48294e+06
3.29908e+06
3.55856e+06
3.82791e+06
4.1025e+06
4.37879e+06
4.65432e+06
4.92748e+06
5.1973e+06
5.46317e+06
5.72499e+06
5.98397e+06
6.24021e+06
6.49415e+06
6.74655e+06
6.99855e+06
7.25175e+06
7.50817e+06
7.77007e+06
8.042e+06
8.3149e+06
735156
951675
1.14585e+06
1.32272e+06
1.48654e+06
1.63953e+06
1.78286e+06
1.91732e+06
2.0436e+06
2.16228e+06
2.27456e+06
2.38102e+06
2.4825e+06
2.58028e+06
2.67634e+06
2.77393e+06
2.87842e+06
2.99858e+06
3.15188e+06
3.34507e+06
664026
723129
794875
873630
956148
1.04013e+06
1.12377e+06
1.20572e+06
1.28499e+06
1.36099e+06
1.43345e+06
1.5022e+06
1.56733e+06
1.62938e+06
1.68952e+06
1.75e+06
1.81487e+06
1.89123e+06
1.9942e+06
2.1326e+06
673135
733884
799940
867737
935724
1.00298e+06
1.06869e+06
1.13209e+06
1.19254e+06
1.24953e+06
1.30265e+06
1.35163e+06
1.3964e+06
1.43717e+06
1.47464e+06
1.51036e+06
1.54732e+06
1.59101e+06
1.65419e+06
1.74465e+06
676889
743859
817402
892935
968068
1.04135e+06
1.11166e+06
1.17809e+06
1.23993e+06
1.29662e+06
1.34774e+06
1.39298e+06
1.43218e+06
1.46541e+06
1.49312e+06
1.51638e+06
1.53751e+06
1.56074e+06
1.59714e+06
1.65242e+06
677557
745660
821685
901149
981334
1.06039e+06
1.13683e+06
1.20945e+06
1.27724e+06
1.33941e+06
1.3953e+06
1.4444e+06
1.48635e+06
1.52098e+06
1.54845e+06
1.56949e+06
1.58583e+06
1.60082e+06
1.62442e+06
1.66029e+06
677711
745816
822170
902588
984432
1.06583e+06
1.14524e+06
1.22136e+06
1.2931e+06
1.35951e+06
1.41981e+06
1.4733e+06
1.51946e+06
1.55794e+06
1.58867e+06
1.6121e+06
1.6296e+06
1.64392e+06
1.66439e+06
1.69306e+06
677787
745819
822096
902593
984762
1.06677e+06
1.14709e+06
1.22446e+06
1.29778e+06
1.36609e+06
1.42856e+06
1.48448e+06
1.53323e+06
1.5744e+06
1.60782e+06
1.63379e+06
1.6535e+06
1.66941e+06
1.69053e+06
1.718e+06
677833
745825
822017
902453
984637
1.06675e+06
1.14731e+06
1.22504e+06
1.29887e+06
1.36787e+06
1.43121e+06
1.48817e+06
1.53815e+06
1.5807e+06
1.61562e+06
1.64319e+06
1.66451e+06
1.68193e+06
1.70438e+06
1.73248e+06
677854
745831
821983
902377
984539
1.06666e+06
1.14726e+06
1.22507e+06
1.29903e+06
1.36821e+06
1.43181e+06
1.48911e+06
1.53951e+06
1.58256e+06
1.61806e+06
1.64629e+06
1.66833e+06
1.6865e+06
1.70971e+06
1.73841e+06
677854
745831
821983
902377
984539
1.06666e+06
1.14726e+06
1.22507e+06
1.29903e+06
1.36821e+06
1.43181e+06
1.48911e+06
1.53951e+06
1.58256e+06
1.61806e+06
1.64629e+06
1.66833e+06
1.6865e+06
1.70971e+06
1.73841e+06
677833
745825
822017
902453
984637
1.06675e+06
1.14731e+06
1.22504e+06
1.29887e+06
1.36787e+06
1.43121e+06
1.48817e+06
1.53815e+06
1.5807e+06
1.61562e+06
1.64319e+06
1.66451e+06
1.68193e+06
1.70438e+06
1.73249e+06
677788
745819
822096
902592
984762
1.06677e+06
1.14709e+06
1.22446e+06
1.29778e+06
1.36609e+06
1.42856e+06
1.48448e+06
1.53323e+06
1.5744e+06
1.60782e+06
1.63379e+06
1.6535e+06
1.66941e+06
1.69054e+06
1.718e+06
677711
745816
822170
902588
984432
1.06583e+06
1.14524e+06
1.22136e+06
1.2931e+06
1.35951e+06
1.41981e+06
1.4733e+06
1.51946e+06
1.55794e+06
1.58867e+06
1.6121e+06
1.6296e+06
1.64393e+06
1.66439e+06
1.69306e+06
677557
745660
821685
901149
981334
1.06039e+06
1.13683e+06
1.20945e+06
1.27724e+06
1.33941e+06
1.3953e+06
1.4444e+06
1.48635e+06
1.52098e+06
1.54845e+06
1.56949e+06
1.58583e+06
1.60082e+06
1.62442e+06
1.66029e+06
676889
743859
817402
892935
968068
1.04135e+06
1.11166e+06
1.17809e+06
1.23993e+06
1.29662e+06
1.34774e+06
1.39298e+06
1.43218e+06
1.46541e+06
1.49312e+06
1.51638e+06
1.53751e+06
1.56074e+06
1.59714e+06
1.65242e+06
673135
733884
799940
867736
935724
1.00298e+06
1.06869e+06
1.13209e+06
1.19254e+06
1.24953e+06
1.30265e+06
1.35163e+06
1.3964e+06
1.43716e+06
1.47464e+06
1.51036e+06
1.54732e+06
1.59101e+06
1.65419e+06
1.74465e+06
664026
723129
794875
873629
956148
1.04013e+06
1.12377e+06
1.20572e+06
1.28498e+06
1.36098e+06
1.43345e+06
1.50219e+06
1.56733e+06
1.62937e+06
1.68951e+06
1.74999e+06
1.81486e+06
1.89122e+06
1.99418e+06
2.13258e+06
735156
951676
1.14585e+06
1.32272e+06
1.48655e+06
1.63953e+06
1.78286e+06
1.91732e+06
2.0436e+06
2.16228e+06
2.27456e+06
2.38101e+06
2.48249e+06
2.58028e+06
2.67633e+06
2.77391e+06
2.8784e+06
2.99856e+06
3.15186e+06
3.34505e+06
3.29908e+06
3.55856e+06
3.82792e+06
4.10251e+06
4.3788e+06
4.65433e+06
4.9275e+06
5.19731e+06
5.46318e+06
5.725e+06
5.98398e+06
6.24023e+06
6.49416e+06
6.74656e+06
6.99856e+06
7.25176e+06
7.50818e+06
7.77008e+06
8.04201e+06
8.3149e+06
3.30203e+06
3.57089e+06
3.85734e+06
4.15585e+06
4.46168e+06
4.77105e+06
5.08104e+06
5.38932e+06
5.69414e+06
5.99427e+06
6.28891e+06
6.57772e+06
6.86079e+06
7.13862e+06
7.41216e+06
7.68482e+06
7.9585e+06
8.23535e+06
8.51898e+06
8.80641e+06
740518
967826
1.17679e+06
1.37021e+06
1.55076e+06
1.7199e+06
1.87845e+06
2.02708e+06
2.16647e+06
2.29737e+06
2.42063e+06
2.53723e+06
2.64841e+06
2.75573e+06
2.86106e+06
2.96927e+06
3.08562e+06
3.21794e+06
3.37872e+06
3.57378e+06
675262
737763
805906
876336
947720
1.01934e+06
1.09054e+06
1.16078e+06
1.2296e+06
1.29672e+06
1.36202e+06
1.42554e+06
1.48757e+06
1.54893e+06
1.61142e+06
1.67748e+06
1.75117e+06
1.839e+06
1.95189e+06
2.09738e+06
734347
751173
774693
802492
833320
866554
901637
937977
974999
1.01219e+06
1.04915e+06
1.08566e+06
1.12173e+06
1.15768e+06
1.19435e+06
1.23344e+06
1.27795e+06
1.33305e+06
1.40786e+06
1.50972e+06
744738
768164
793409
819288
845450
871895
898547
925173
951449
977024
1.00157e+06
1.02484e+06
1.04673e+06
1.06739e+06
1.08736e+06
1.10784e+06
1.13115e+06
1.16131e+06
1.20598e+06
1.27148e+06
747451
775208
805445
836307
866954
897072
926399
954602
981304
1.00612e+06
1.0287e+06
1.04873e+06
1.06604e+06
1.08063e+06
1.09285e+06
1.10357e+06
1.11459e+06
1.12913e+06
1.15375e+06
1.19363e+06
747915
776395
808091
841204
874728
908127
940930
972617
1.00264e+06
1.03045e+06
1.05555e+06
1.07749e+06
1.09593e+06
1.1107e+06
1.12194e+06
1.13025e+06
1.13705e+06
1.14496e+06
1.15983e+06
1.18572e+06
748024
776511
808380
841998
876408
911062
945458
979031
1.01117e+06
1.04126e+06
1.06869e+06
1.09293e+06
1.11351e+06
1.13015e+06
1.1428e+06
1.1519e+06
1.15857e+06
1.16507e+06
1.1768e+06
1.19704e+06
748074
776520
808340
841989
876565
911544
946438
980692
1.0137e+06
1.04483e+06
1.07348e+06
1.09904e+06
1.12104e+06
1.13911e+06
1.15315e+06
1.16346e+06
1.17106e+06
1.17798e+06
1.18939e+06
1.20808e+06
748098
776524
808303
841924
876509
911546
946555
980992
1.01426e+06
1.04574e+06
1.07481e+06
1.10089e+06
1.12347e+06
1.14219e+06
1.1569e+06
1.16789e+06
1.17611e+06
1.18351e+06
1.19516e+06
1.21367e+06
748098
776524
808303
841924
876509
911546
946555
980992
1.01426e+06
1.04574e+06
1.07481e+06
1.10089e+06
1.12347e+06
1.14219e+06
1.1569e+06
1.16789e+06
1.17611e+06
1.18351e+06
1.19517e+06
1.21367e+06
748074
776520
808340
841989
876565
911544
946438
980692
1.0137e+06
1.04483e+06
1.07348e+06
1.09904e+06
1.12104e+06
1.13911e+06
1.15315e+06
1.16346e+06
1.17106e+06
1.17798e+06
1.18939e+06
1.20809e+06
748024
776511
808380
841998
876408
911062
945458
979031
1.01117e+06
1.04126e+06
1.06869e+06
1.09293e+06
1.11351e+06
1.13015e+06
1.1428e+06
1.1519e+06
1.15857e+06
1.16507e+06
1.1768e+06
1.19704e+06
747915
776395
808091
841204
874728
908127
940930
972617
1.00264e+06
1.03045e+06
1.05555e+06
1.07749e+06
1.09593e+06
1.1107e+06
1.12194e+06
1.13025e+06
1.13705e+06
1.14496e+06
1.15983e+06
1.18573e+06
747451
775208
805445
836307
866954
897072
926399
954602
981304
1.00612e+06
1.0287e+06
1.04873e+06
1.06604e+06
1.08063e+06
1.09285e+06
1.10357e+06
1.11459e+06
1.12913e+06
1.15375e+06
1.19363e+06
744738
768164
793409
819288
845450
871895
898547
925173
951449
977024
1.00157e+06
1.02484e+06
1.04673e+06
1.06739e+06
1.08735e+06
1.10784e+06
1.13114e+06
1.16131e+06
1.20597e+06
1.27147e+06
734347
751173
774693
802491
833320
866553
901636
937976
974998
1.01219e+06
1.04915e+06
1.08566e+06
1.12173e+06
1.15768e+06
1.19435e+06
1.23343e+06
1.27795e+06
1.33304e+06
1.40785e+06
1.5097e+06
675262
737763
805906
876335
947719
1.01933e+06
1.09054e+06
1.16077e+06
1.22959e+06
1.29671e+06
1.36202e+06
1.42554e+06
1.48757e+06
1.54893e+06
1.61141e+06
1.67747e+06
1.75115e+06
1.83898e+06
1.95187e+06
2.09735e+06
740518
967826
1.17679e+06
1.37021e+06
1.55076e+06
1.7199e+06
1.87845e+06
2.02708e+06
2.16647e+06
2.29737e+06
2.42062e+06
2.53722e+06
2.6484e+06
2.75573e+06
2.86105e+06
2.96925e+06
3.0856e+06
3.21792e+06
3.37869e+06
3.57374e+06
3.30203e+06
3.57089e+06
3.85735e+06
4.15586e+06
4.46169e+06
4.77107e+06
5.08105e+06
5.38933e+06
5.69416e+06
5.99428e+06
6.28892e+06
6.57774e+06
6.86081e+06
7.13864e+06
7.41218e+06
7.68484e+06
7.95851e+06
8.23536e+06
8.51898e+06
8.80641e+06
3.30228e+06
3.5726e+06
3.8629e+06
4.16794e+06
4.48292e+06
4.80404e+06
5.12819e+06
5.45274e+06
5.77557e+06
6.09498e+06
6.40975e+06
6.71911e+06
7.02269e+06
7.32059e+06
7.61333e+06
7.90373e+06
8.19305e+06
8.48319e+06
8.77702e+06
9.07469e+06
742293
972671
1.18813e+06
1.39158e+06
1.58492e+06
1.76878e+06
1.94329e+06
2.10853e+06
2.26471e+06
2.41223e+06
2.55165e+06
2.68382e+06
2.8099e+06
2.93152e+06
3.05087e+06
3.17198e+06
3.29956e+06
3.44049e+06
3.60424e+06
3.79621e+06
679358
748682
825218
904632
984825
1.06464e+06
1.14327e+06
1.22013e+06
1.29489e+06
1.3674e+06
1.43776e+06
1.50627e+06
1.57352e+06
1.64046e+06
1.70869e+06
1.78116e+06
1.86169e+06
1.95605e+06
2.07253e+06
2.21718e+06
746852
771976
799191
827423
856437
886369
917284
949103
981670
1.01483e+06
1.04849e+06
1.08265e+06
1.11752e+06
1.15371e+06
1.19236e+06
1.23526e+06
1.28537e+06
1.34736e+06
1.42819e+06
1.5338e+06
807827
809988
815720
824095
834404
846287
859508
873827
888999
904803
921078
937776
955004
973110
992840
1.01555e+06
1.04357e+06
1.0806e+06
1.13251e+06
1.20466e+06
816808
825694
834928
844332
853775
863249
872748
882204
891495
900480
909034
917087
924682
932051
939741
948800
961068
979565
1.00922e+06
1.05469e+06
818822
830892
843746
856769
869538
881845
893544
904476
914454
923285
930794
936850
941416
944612
946825
948870
952244
959452
974764
1.00211e+06
819154
831755
845625
860173
874869
889364
903375
916611
928769
939542
948648
955846
960982
964047
965273
965280
965301
967467
975597
993037
819224
831841
845844
860739
876025
891344
906391
920843
934353
946559
957114
965705
972092
976169
978051
978219
977724
978448
983918
997070
819249
831845
845835
860769
876173
891700
907054
921914
935930
948731
959950
969249
976353
981114
983594
984204
983906
984461
989255
1.00101e+06
819249
831845
845835
860769
876173
891700
907054
921914
935930
948731
959950
969249
976353
981114
983594
984204
983906
984461
989255
1.00101e+06
819224
831841
845844
860739
876025
891344
906391
920843
934352
946559
957114
965705
972092
976169
978052
978219
977724
978449
983918
997070
819154
831755
845625
860173
874869
889364
903375
916611
928769
939542
948648
955846
960982
964047
965273
965280
965301
967467
975596
993036
818822
830892
843746
856769
869538
881845
893544
904476
914454
923285
930793
936850
941416
944612
946824
948869
952243
959450
974762
1.00211e+06
816808
825694
834928
844332
853775
863248
872747
882203
891495
900480
909033
917086
924680
932049
939739
948798
961065
979561
1.00922e+06
1.05468e+06
807827
809988
815720
824095
834403
846287
859508
873826
888998
904802
921076
937774
955001
973106
992836
1.01555e+06
1.04356e+06
1.0806e+06
1.1325e+06
1.20465e+06
746852
771976
799191
827422
856437
886368
917283
949101
981668
1.01483e+06
1.04848e+06
1.08264e+06
1.11751e+06
1.15371e+06
1.19235e+06
1.23525e+06
1.28536e+06
1.34734e+06
1.42817e+06
1.53378e+06
679358
748682
825218
904632
984824
1.06464e+06
1.14327e+06
1.22013e+06
1.29488e+06
1.3674e+06
1.43775e+06
1.50626e+06
1.57351e+06
1.64045e+06
1.70868e+06
1.78114e+06
1.86167e+06
1.95603e+06
2.0725e+06
2.21714e+06
742293
972671
1.18813e+06
1.39158e+06
1.58492e+06
1.76878e+06
1.94329e+06
2.10853e+06
2.26471e+06
2.41222e+06
2.55165e+06
2.68382e+06
2.8099e+06
2.93151e+06
3.05085e+06
3.17196e+06
3.29954e+06
3.44046e+06
3.60421e+06
3.79617e+06
3.30228e+06
3.5726e+06
3.86291e+06
4.16794e+06
4.48293e+06
4.80405e+06
5.1282e+06
5.45276e+06
5.77558e+06
6.09499e+06
6.40977e+06
6.71912e+06
7.02271e+06
7.3206e+06
7.61334e+06
7.90375e+06
8.19306e+06
8.4832e+06
8.77703e+06
9.07469e+06
3.30221e+06
3.57254e+06
3.8635e+06
4.1702e+06
4.48818e+06
4.81388e+06
5.14437e+06
5.47705e+06
5.80967e+06
6.14029e+06
6.46738e+06
6.78976e+06
7.10667e+06
7.41775e+06
7.72306e+06
8.02311e+06
8.31926e+06
8.61522e+06
8.91317e+06
9.21466e+06
742619
973024
1.18921e+06
1.39465e+06
1.59136e+06
1.77997e+06
1.96058e+06
2.13322e+06
2.29799e+06
2.4551e+06
2.60496e+06
2.74823e+06
2.8859e+06
3.01942e+06
3.15085e+06
3.28319e+06
3.42046e+06
3.56949e+06
3.73783e+06
3.93078e+06
680012
750512
829649
913202
998779
1.08489e+06
1.17044e+06
1.25465e+06
1.33699e+06
1.41725e+06
1.49541e+06
1.57178e+06
1.64694e+06
1.72192e+06
1.7983e+06
1.8783e+06
1.96567e+06
2.06564e+06
2.18478e+06
2.32838e+06
749873
779792
812672
846799
881518
916742
952460
988620
1.02515e+06
1.06204e+06
1.09932e+06
1.13719e+06
1.17605e+06
1.21657e+06
1.25984e+06
1.30779e+06
1.36327e+06
1.43038e+06
1.51473e+06
1.62133e+06
818774
829085
839859
851033
862589
874644
887327
900708
914814
929670
945337
961954
979807
999423
1.02174e+06
1.04818e+06
1.081e+06
1.12354e+06
1.18055e+06
1.2566e+06
876428
872710
871253
871526
872983
875288
878266
881805
885818
890251
895099
900442
906481
913613
922534
934395
951020
975194
1.01093e+06
1.06229e+06
884069
886364
888495
890511
892334
893919
895259
896346
897158
897665
897859
897780
897569
897522
898191
900516
906019
917050
937078
969666
885647
890455
895424
900266
904697
908529
911659
914011
915510
916088
915690
914310
912017
909023
905764
903019
902093
905024
914901
934895
885896
891133
896894
902892
908755
914192
918995
922992
926020
927926
928576
927880
925821
922517
918293
913797
910167
909224
913798
926778
885937
891202
897090
903362
909653
915661
921155
925933
929796
932547
934004
934024
932535
929591
925445
920667
916296
914031
916566
926630
885937
891202
897090
903362
909653
915661
921155
925933
929796
932547
934004
934024
932535
929591
925445
920667
916296
914031
916566
926630
885896
891133
896894
902892
908755
914192
918995
922992
926020
927926
928576
927879
925821
922517
918293
913797
910167
909223
913797
926776
885647
890455
895424
900266
904697
908529
911659
914011
915510
916087
915690
914309
912017
909023
905763
903018
902092
905022
914899
934891
884069
886364
888495
890511
892334
893919
895259
896346
897158
897665
897858
897780
897568
897520
898189
900514
906016
917046
937073
969658
876428
872710
871253
871526
872982
875288
878266
881804
885817
890250
895097
900440
906479
913610
922531
934391
951014
975187
1.01092e+06
1.06227e+06
818774
829085
839859
851033
862588
874643
887326
900707
914812
929668
945335
961951
979804
999418
1.02173e+06
1.04818e+06
1.08099e+06
1.12353e+06
1.18054e+06
1.25658e+06
749873
779792
812672
846799
881518
916741
952459
988618
1.02515e+06
1.06203e+06
1.09932e+06
1.13719e+06
1.17604e+06
1.21656e+06
1.25983e+06
1.30778e+06
1.36326e+06
1.43037e+06
1.51471e+06
1.62131e+06
680012
750512
829649
913202
998778
1.08489e+06
1.17044e+06
1.25464e+06
1.33699e+06
1.41724e+06
1.49541e+06
1.57177e+06
1.64693e+06
1.72191e+06
1.79828e+06
1.87829e+06
1.96565e+06
2.06561e+06
2.18475e+06
2.32834e+06
742619
973025
1.18921e+06
1.39465e+06
1.59136e+06
1.77997e+06
1.96058e+06
2.13322e+06
2.29798e+06
2.45509e+06
2.60496e+06
2.74823e+06
2.8859e+06
3.01941e+06
3.15084e+06
3.28318e+06
3.42043e+06
3.56946e+06
3.7378e+06
3.93074e+06
3.30221e+06
3.57255e+06
3.86351e+06
4.17021e+06
4.48819e+06
4.81389e+06
5.14438e+06
5.47706e+06
5.80968e+06
6.14031e+06
6.4674e+06
6.78978e+06
7.10669e+06
7.41777e+06
7.72308e+06
8.02313e+06
8.31928e+06
8.61523e+06
8.91318e+06
9.21467e+06
3.30217e+06
3.57242e+06
3.86346e+06
4.17055e+06
4.4893e+06
4.81625e+06
5.14856e+06
5.48373e+06
5.81953e+06
6.15407e+06
6.48578e+06
6.81343e+06
7.13614e+06
7.45341e+06
7.76509e+06
8.07144e+06
8.37312e+06
8.67268e+06
8.97289e+06
9.2758e+06
742753
973057
1.18923e+06
1.39511e+06
1.59288e+06
1.78329e+06
1.9665e+06
2.14259e+06
2.31165e+06
2.47391e+06
2.62973e+06
2.77971e+06
2.92476e+06
3.06619e+06
3.20594e+06
3.34666e+06
3.49208e+06
3.64755e+06
3.81983e+06
4.01445e+06
680127
750618
830107
914682
1.00204e+06
1.09069e+06
1.17951e+06
1.26767e+06
1.35461e+06
1.43999e+06
1.52377e+06
1.60614e+06
1.68764e+06
1.76918e+06
1.8522e+06
1.93884e+06
2.03209e+06
2.13641e+06
2.25745e+06
2.40015e+06
750336
781017
815476
852080
890032
929065
969016
1.00972e+06
1.05102e+06
1.09283e+06
1.13518e+06
1.17824e+06
1.22239e+06
1.26833e+06
1.31716e+06
1.37055e+06
1.43095e+06
1.50208e+06
1.58854e+06
1.69486e+06
821083
834987
849967
865546
881464
897700
914324
931405
949014
967244
986244
1.00626e+06
1.02768e+06
1.05111e+06
1.07746e+06
1.10815e+06
1.1453e+06
1.19189e+06
1.25186e+06
1.32928e+06
885923
889504
892983
896512
900108
903822
907746
911979
916611
921743
927509
934112
941870
951287
963153
978636
999474
1.02817e+06
1.06812e+06
1.12294e+06
939536
932708
927531
923638
920612
918157
916105
914366
912890
911666
910732
910204
910309
911439
914232
919672
929244
945111
970234
1.00787e+06
946150
944639
942821
940802
938555
936037
933224
930108
926686
922960
918960
914771
910572
906683
903644
902315
904007
910651
924931
949851
947432
948000
948513
948796
948656
947941
946553
944431
941533
937831
933322
928056
922167
915926
909804
904578
901451
902214
909389
925841
947621
948555
949714
950888
951804
952220
951955
950873
948866
945847
941765
936621
930507
923647
916468
909693
904469
902514
906275
918552
947621
948555
949714
950888
951804
952220
951955
950873
948866
945847
941765
936621
930507
923647
916468
909693
904469
902513
906274
918551
947432
948000
948513
948796
948656
947941
946553
944431
941533
937830
933321
928055
922167
915925
909803
904577
901450
902212
909387
925837
946150
944639
942821
940802
938555
936036
933223
930108
926685
922959
918959
914771
910571
906681
903643
902313
904004
910647
924926
949844
939536
932708
927531
923637
920611
918157
916105
914365
912889
911665
910731
910202
910307
911437
914229
919668
929240
945104
970226
1.00786e+06
885922
889504
892983
896511
900108
903821
907745
911978
916610
921741
927507
934109
941868
951283
963148
978630
999466
1.02816e+06
1.06811e+06
1.12292e+06
821083
834987
849966
865546
881463
897699
914323
931404
949012
967242
986242
1.00626e+06
1.02767e+06
1.0511e+06
1.07745e+06
1.10814e+06
1.14529e+06
1.19188e+06
1.25184e+06
1.32926e+06
750336
781017
815476
852079
890032
929064
969015
1.00972e+06
1.05102e+06
1.09283e+06
1.13518e+06
1.17823e+06
1.22238e+06
1.26832e+06
1.31716e+06
1.37054e+06
1.43094e+06
1.50206e+06
1.58852e+06
1.69483e+06
680127
750618
830107
914681
1.00204e+06
1.09069e+06
1.17951e+06
1.26767e+06
1.3546e+06
1.43999e+06
1.52376e+06
1.60614e+06
1.68763e+06
1.76917e+06
1.85219e+06
1.93883e+06
2.03207e+06
2.13639e+06
2.25742e+06
2.40011e+06
742753
973057
1.18923e+06
1.39511e+06
1.59288e+06
1.78329e+06
1.9665e+06
2.14258e+06
2.31165e+06
2.47391e+06
2.62973e+06
2.77971e+06
2.92475e+06
3.06618e+06
3.20592e+06
3.34664e+06
3.49205e+06
3.64752e+06
3.81979e+06
4.0144e+06
3.30217e+06
3.57242e+06
3.86346e+06
4.17056e+06
4.4893e+06
4.81626e+06
5.14857e+06
5.48374e+06
5.81954e+06
6.15409e+06
6.4858e+06
6.81344e+06
7.13616e+06
7.45342e+06
7.76511e+06
8.07146e+06
8.37314e+06
8.6727e+06
8.97291e+06
9.27581e+06
3.30214e+06
3.57236e+06
3.86344e+06
4.17072e+06
4.48984e+06
4.81741e+06
5.15063e+06
5.48707e+06
5.82454e+06
6.16118e+06
6.4954e+06
6.82594e+06
7.15185e+06
7.4725e+06
7.78762e+06
8.09727e+06
8.40187e+06
8.70222e+06
9.00138e+06
9.30226e+06
742825
973095
1.18922e+06
1.39519e+06
1.59332e+06
1.78442e+06
1.9687e+06
2.1463e+06
2.31741e+06
2.4823e+06
2.6414e+06
2.79533e+06
2.94501e+06
3.09175e+06
3.23736e+06
3.38434e+06
3.536e+06
3.69675e+06
3.87264e+06
4.0696e+06
680177
750591
830032
914755
1.00256e+06
1.09201e+06
1.18202e+06
1.2718e+06
1.3608e+06
1.44874e+06
1.53555e+06
1.62142e+06
1.70685e+06
1.79269e+06
1.88027e+06
1.97151e+06
2.0691e+06
2.17667e+06
2.29898e+06
2.44113e+06
750417
781092
815742
852908
891854
932313
974116
1.01708e+06
1.06104e+06
1.10589e+06
1.15161e+06
1.19836e+06
1.24647e+06
1.29658e+06
1.34969e+06
1.40732e+06
1.47164e+06
1.54559e+06
1.63329e+06
1.73901e+06
821423
835894
851995
869292
887438
906299