/*--------------------------------*- C++ -*----------------------------------*\
  =========                 |
  \\      /  F ield         | OpenFOAM: The Open Source CFD Toolbox
   \\    /   O peration     | Website:  https://openfoam.org
    \\  /    A nd           | Version:  10
     \\/     M anipulation  |
\*---------------------------------------------------------------------------*/
FoamFile
{
    format      ascii;
    class       volScalarField;
    location    "200";
    object      k;
}
// * * * * * * * * * * * * * * * * * * * * * * * * * * * * * * * * * * * * * //

dimensions      [0 2 -2 0 0 0 0];

internalField   nonuniform List<scalar> 
112000
(
461.533
472.062
483.038
494.349
505.814
517.361
528.985
540.702
552.536
564.517
576.686
589.096
601.813
614.916
628.499
642.673
657.562
673.275
690.345
704.731
471.785
493.336
514.613
535.635
556.31
576.604
596.531
616.12
635.402
654.415
673.207
691.84
710.395
728.966
747.675
766.676
786.188
806.51
828.894
849.654
473.097
497.748
522.871
548.056
573.02
597.59
621.677
645.241
668.277
690.802
712.855
734.491
755.785
776.832
797.747
818.683
839.85
861.538
885.109
906.495
473.367
498.857
525.472
552.688
580.09
607.382
634.355
660.865
686.821
712.174
736.911
761.049
784.636
807.741
830.463
852.931
875.321
897.856
921.828
942.519
473.388
498.997
525.932
553.681
581.82
610.043
638.123
665.891
693.226
720.049
746.319
772.03
797.204
821.892
846.173
870.154
893.983
917.829
942.919
964.03
473.382
498.984
525.959
553.825
582.182
610.743
639.296
667.674
695.749
723.43
750.659
777.41
803.689
829.529
854.992
880.169
905.194
930.21
956.425
978.274
473.379
498.967
525.932
553.805
582.19
610.807
639.453
667.967
696.23
724.155
751.688
778.809
805.523
831.866
857.902
883.726
909.473
935.288
962.395
985.088
473.377
498.957
525.912
553.776
582.157
610.778
639.439
667.987
696.306
724.314
751.962
779.232
806.133
832.704
859.01
885.149
911.263
937.503
965.116
988.331
473.377
498.952
525.9
553.758
582.132
610.747
639.403
667.949
696.27
724.286
751.952
779.25
806.193
832.823
859.21
885.457
911.711
938.131
965.982
989.478
473.377
498.95
525.895
553.749
582.12
610.731
639.383
667.925
696.243
724.259
751.926
779.23
806.184
832.831
859.243
885.525
911.825
938.309
966.248
989.852
473.377
498.95
525.895
553.749
582.12
610.731
639.383
667.925
696.243
724.259
751.926
779.23
806.184
832.831
859.243
885.525
911.825
938.309
966.248
989.852
473.377
498.952
525.9
553.758
582.132
610.747
639.403
667.949
696.27
724.286
751.952
779.25
806.193
832.823
859.21
885.457
911.71
938.131
965.981
989.478
473.377
498.957
525.912
553.776
582.157
610.778
639.439
667.987
696.306
724.314
751.962
779.232
806.133
832.704
859.009
885.149
911.263
937.503
965.116
988.33
473.379
498.967
525.932
553.805
582.19
610.807
639.453
667.967
696.23
724.155
751.688
778.808
805.523
831.866
857.902
883.726
909.473
935.288
962.394
985.088
473.382
498.984
525.959
553.825
582.182
610.743
639.296
667.674
695.749
723.43
750.658
777.41
803.689
829.529
854.991
880.169
905.194
930.21
956.424
978.274
473.388
498.997
525.932
553.681
581.82
610.043
638.122
665.89
693.225
720.049
746.319
772.029
797.203
821.892
846.173
870.153
893.982
917.829
942.919
964.029
473.367
498.857
525.472
552.688
580.09
607.382
634.355
660.865
686.821
712.174
736.911
761.049
784.635
807.741
830.463
852.93
875.32
897.856
921.828
942.518
473.097
497.748
522.871
548.056
573.02
597.59
621.677
645.241
668.277
690.802
712.855
734.491
755.785
776.831
797.747
818.682
839.849
861.538
885.108
906.494
471.785
493.336
514.613
535.635
556.309
576.604
596.531
616.119
635.402
654.414
673.206
691.84
710.394
728.966
747.674
766.676
786.187
806.51
828.894
849.653
461.533
472.062
483.038
494.349
505.814
517.361
528.985
540.702
552.536
564.517
576.686
589.096
601.813
614.915
628.499
642.672
657.562
673.274
690.344
704.729
471.664
492.906
513.702
534.079
553.951
573.284
592.09
610.398
628.25
645.735
662.891
679.775
696.46
713.039
729.621
746.34
763.345
780.781
799.045
816.681
708.61
769.393
813.024
847.246
875.604
899.587
919.996
937.395
952.201
964.709
975.222
984.033
991.459
997.877
1003.79
1009.96
1017.59
1028.78
1049.38
1082.64
721.233
800.357
858.794
903.732
939.632
968.909
992.975
1012.79
1029.04
1042.26
1052.87
1061.24
1067.74
1072.79
1076.93
1080.95
1086.21
1095.01
1114.3
1148.03
726.43
814.151
882.492
937.068
981.557
1018.12
1048.13
1072.59
1092.29
1107.84
1119.79
1128.57
1134.62
1138.38
1140.37
1141.35
1142.51
1145.91
1158.33
1182.82
727.696
817.384
889.32
948.819
998.962
1041.44
1077.29
1107.27
1131.98
1151.96
1167.64
1179.44
1187.73
1192.92
1195.48
1196.04
1195.64
1195.95
1203.31
1219.24
727.976
817.778
890.266
950.953
1002.87
1047.62
1086.12
1119.05
1146.9
1170.07
1188.91
1203.74
1214.84
1222.52
1227.18
1229.33
1229.84
1230.09
1236.1
1248.12
728.103
817.863
890.361
951.27
1003.68
1049.17
1088.68
1122.87
1152.19
1177.02
1197.66
1214.38
1227.42
1237.05
1243.59
1247.5
1249.56
1251
1257.66
1268.98
728.178
817.91
890.345
951.234
1003.7
1049.34
1089.11
1123.65
1153.44
1178.87
1200.22
1217.77
1231.74
1242.38
1250.01
1255.06
1258.27
1260.82
1268.52
1280.39
728.22
817.942
890.337
951.188
1003.64
1049.31
1089.14
1123.77
1153.71
1179.34
1200.96
1218.83
1233.19
1244.29
1252.44
1258.08
1261.94
1265.2
1273.66
1286.17
728.24
817.958
890.336
951.167
1003.61
1049.27
1089.11
1123.76
1153.73
1179.41
1201.09
1219.05
1233.54
1244.79
1253.12
1258.98
1263.1
1266.65
1275.48
1288.35
728.24
817.958
890.336
951.167
1003.61
1049.27
1089.11
1123.76
1153.73
1179.41
1201.09
1219.05
1233.53
1244.79
1253.12
1258.98
1263.1
1266.65
1275.48
1288.35
728.22
817.942
890.337
951.188
1003.64
1049.31
1089.14
1123.77
1153.71
1179.34
1200.96
1218.83
1233.19
1244.29
1252.44
1258.08
1261.94
1265.2
1273.66
1286.18
728.178
817.91
890.345
951.234
1003.7
1049.34
1089.11
1123.65
1153.44
1178.87
1200.22
1217.77
1231.74
1242.38
1250.01
1255.06
1258.27
1260.82
1268.52
1280.39
728.103
817.863
890.361
951.27
1003.67
1049.17
1088.68
1122.87
1152.19
1177.02
1197.66
1214.38
1227.42
1237.05
1243.59
1247.5
1249.56
1251
1257.66
1268.98
727.976
817.778
890.266
950.953
1002.87
1047.62
1086.12
1119.05
1146.9
1170.07
1188.91
1203.74
1214.83
1222.52
1227.18
1229.33
1229.84
1230.1
1236.1
1248.12
727.696
817.384
889.32
948.819
998.962
1041.44
1077.29
1107.27
1131.98
1151.96
1167.64
1179.44
1187.73
1192.92
1195.47
1196.04
1195.64
1195.95
1203.32
1219.24
726.43
814.151
882.492
937.068
981.557
1018.12
1048.13
1072.59
1092.29
1107.84
1119.79
1128.57
1134.62
1138.38
1140.37
1141.35
1142.51
1145.91
1158.33
1182.82
721.233
800.357
858.794
903.732
939.632
968.908
992.975
1012.79
1029.04
1042.26
1052.87
1061.24
1067.74
1072.79
1076.93
1080.95
1086.21
1095.01
1114.3
1148.03
708.61
769.393
813.024
847.246
875.604
899.587
919.996
937.395
952.201
964.709
975.222
984.033
991.458
997.876
1003.79
1009.96
1017.59
1028.78
1049.38
1082.64
471.664
492.906
513.703
534.08
553.952
573.284
592.091
610.399
628.251
645.736
662.892
679.776
696.461
713.039
729.622
746.34
763.345
780.782
799.046
816.682
473.079
497.569
522.371
547.062
571.356
595.079
618.141
640.505
662.166
683.157
703.608
723.553
743.051
762.182
781.045
799.772
818.515
837.441
856.868
876.144
723.438
804.153
864.128
910.605
948.097
979.061
1004.95
1026.76
1045.22
1060.89
1074.13
1085.41
1095.19
1104.01
1112.57
1121.82
1133.21
1148.99
1173.48
1208.17
737.208
771.373
808.891
846.094
881.431
914.153
943.885
970.513
994.105
1014.84
1032.96
1048.78
1062.7
1075.25
1087.19
1099.66
1114.52
1134.69
1166.03
1211.46
747.136
787.261
826.93
863.942
897.762
928.344
955.725
979.982
1001.24
1019.66
1035.44
1048.82
1060.11
1069.75
1078.4
1087.11
1097.63
1112.87
1138.98
1179.44
750.203
795.19
840.398
882.86
921.511
956.05
986.433
1012.74
1035.16
1053.89
1069.2
1081.35
1090.67
1097.57
1102.63
1106.77
1111.52
1119.42
1136.31
1165.33
750.763
796.711
843.822
889.064
931.045
969.147
1003.08
1032.75
1058.19
1079.51
1096.9
1110.55
1120.74
1127.79
1132.18
1134.69
1136.59
1140.06
1150.45
1170.15
750.888
796.881
844.304
890.301
933.481
973.159
1008.97
1040.73
1068.39
1091.98
1111.58
1127.32
1139.39
1148.02
1153.6
1156.76
1158.62
1161.03
1168.99
1184.17
750.945
796.891
844.284
890.379
933.835
973.98
1010.44
1043.04
1071.7
1096.43
1117.29
1134.36
1147.79
1157.77
1164.63
1168.92
1171.65
1174.52
1182.32
1196.25
750.978
796.895
844.233
890.299
933.788
974.035
1010.68
1043.54
1072.56
1097.75
1119.15
1136.86
1151
1161.75
1169.43
1174.55
1178.07
1181.63
1189.94
1203.93
750.993
796.899
844.208
890.249
933.729
973.991
1010.67
1043.6
1072.72
1098.04
1119.63
1137.56
1151.96
1163.02
1171.04
1176.53
1180.45
1184.39
1193.07
1207.29
750.993
796.899
844.208
890.249
933.729
973.991
1010.67
1043.6
1072.72
1098.04
1119.63
1137.56
1151.96
1163.02
1171.04
1176.53
1180.45
1184.39
1193.07
1207.29
750.978
796.895
844.233
890.299
933.788
974.035
1010.68
1043.54
1072.56
1097.75
1119.15
1136.86
1151
1161.75
1169.43
1174.55
1178.07
1181.63
1189.94
1203.93
750.945
796.891
844.284
890.379
933.835
973.98
1010.44
1043.04
1071.7
1096.43
1117.29
1134.36
1147.79
1157.77
1164.63
1168.92
1171.65
1174.52
1182.33
1196.25
750.888
796.881
844.304
890.301
933.481
973.159
1008.97
1040.73
1068.39
1091.98
1111.58
1127.32
1139.39
1148.02
1153.6
1156.76
1158.62
1161.03
1168.99
1184.17
750.763
796.711
843.822
889.064
931.045
969.147
1003.08
1032.75
1058.19
1079.51
1096.9
1110.55
1120.74
1127.79
1132.18
1134.69
1136.59
1140.06
1150.45
1170.16
750.203
795.19
840.398
882.86
921.511
956.05
986.433
1012.74
1035.16
1053.89
1069.2
1081.35
1090.67
1097.57
1102.63
1106.77
1111.52
1119.42
1136.31
1165.33
747.136
787.261
826.93
863.942
897.762
928.344
955.724
979.981
1001.24
1019.66
1035.44
1048.82
1060.11
1069.75
1078.4
1087.11
1097.62
1112.87
1138.98
1179.44
737.208
771.373
808.891
846.094
881.43
914.153
943.885
970.513
994.104
1014.84
1032.96
1048.78
1062.7
1075.25
1087.18
1099.66
1114.51
1134.69
1166.03
1211.46
723.438
804.153
864.128
910.605
948.097
979.061
1004.95
1026.76
1045.22
1060.88
1074.13
1085.41
1095.19
1104.01
1112.57
1121.82
1133.21
1148.99
1173.48
1208.17
473.079
497.57
522.372
547.063
571.357
595.08
618.142
640.506
662.167
683.158
703.609
723.554
743.052
762.183
781.046
799.772
818.516
837.442
856.868
876.144
473.36
498.718
525.045
551.795
578.544
604.988
630.917
656.186
680.701
704.414
727.312
749.413
770.762
791.432
811.523
831.304
850.926
870.547
890.422
910.34
728.712
818.194
888.308
944.758
991.329
1030.28
1063.05
1090.74
1114.21
1134.17
1151.25
1166.04
1179.12
1191.13
1202.8
1215
1229.13
1247.19
1272.23
1305.49
748.66
789.89
830.727
869.069
904.468
936.944
966.575
993.478
1017.82
1039.8
1059.68
1077.78
1094.48
1110.37
1126.24
1143.29
1163.29
1188.95
1224.49
1272.38
793.769
806.967
824.735
844.752
865.754
887.078
908.236
928.819
948.507
967.087
984.452
1000.62
1015.76
1030.23
1044.67
1060.18
1078.54
1102.59
1137.02
1185.11
802.02
820.204
839.36
858.472
877.15
895.286
912.762
929.399
945.007
959.421
972.53
984.305
994.828
1004.35
1013.4
1022.88
1034.4
1050.55
1075.95
1114.08
804.157
825.617
848.357
870.869
892.458
912.856
931.878
949.339
965.066
978.919
990.804
1000.69
1008.63
1014.83
1019.69
1023.98
1029.05
1037.15
1052.53
1078.42
804.541
826.628
850.534
874.743
898.399
921.051
942.357
962.004
979.711
995.249
1008.44
1019.19
1027.47
1033.39
1037.25
1039.66
1041.73
1045.39
1054.49
1071.77
804.629
826.752
850.838
875.484
899.85
923.461
945.934
966.907
986.046
1003.06
1017.71
1029.83
1039.32
1046.2
1050.69
1053.26
1054.87
1057.19
1063.78
1076.94
804.667
826.765
850.831
875.526
900.052
923.942
946.821
968.325
988.114
1005.88
1021.37
1034.38
1044.78
1052.56
1057.86
1061.1
1063.13
1065.49
1071.56
1083.34
804.684
826.768
850.808
875.49
900.034
923.984
946.968
968.628
988.629
1006.67
1022.48
1035.86
1046.68
1054.89
1060.63
1064.29
1066.69
1069.28
1075.39
1086.88
804.684
826.768
850.808
875.49
900.034
923.984
946.968
968.628
988.629
1006.67
1022.48
1035.86
1046.68
1054.89
1060.63
1064.29
1066.69
1069.28
1075.39
1086.88
804.667
826.765
850.831
875.526
900.052
923.942
946.821
968.325
988.114
1005.88
1021.37
1034.38
1044.78
1052.56
1057.86
1061.1
1063.13
1065.49
1071.56
1083.34
804.629
826.752
850.838
875.484
899.85
923.461
945.934
966.907
986.046
1003.06
1017.71
1029.83
1039.32
1046.2
1050.69
1053.26
1054.87
1057.19
1063.79
1076.94
804.541
826.628
850.534
874.743
898.399
921.051
942.357
962.004
979.711
995.249
1008.44
1019.19
1027.47
1033.39
1037.25
1039.66
1041.73
1045.39
1054.49
1071.77
804.157
825.617
848.357
870.869
892.458
912.856
931.878
949.339
965.066
978.919
990.804
1000.69
1008.63
1014.83
1019.69
1023.98
1029.05
1037.15
1052.53
1078.42
802.02
820.204
839.36
858.472
877.15
895.286
912.761
929.399
945.006
959.42
972.53
984.304
994.827
1004.35
1013.4
1022.88
1034.4
1050.55
1075.95
1114.07
793.769
806.967
824.735
844.752
865.754
887.077
908.236
928.818
948.507
967.086
984.451
1000.62
1015.76
1030.23
1044.67
1060.18
1078.54
1102.59
1137.02
1185.11
748.66
789.89
830.726
869.069
904.468
936.943
966.574
993.477
1017.81
1039.8
1059.68
1077.78
1094.48
1110.36
1126.24
1143.28
1163.29
1188.94
1224.49
1272.37
728.712
818.194
888.308
944.758
991.329
1030.28
1063.05
1090.74
1114.21
1134.17
1151.25
1166.04
1179.12
1191.12
1202.8
1215
1229.13
1247.19
1272.23
1305.48
473.36
498.719
525.045
551.795
578.545
604.989
630.918
656.187
680.702
704.416
727.314
749.414
770.763
791.434
811.524
831.306
850.926
870.548
890.422
910.34
473.384
498.877
525.55
552.864
580.379
607.774
634.814
661.324
687.175
712.283
736.6
760.114
782.84
804.825
826.14
847.017
867.563
887.927
908.313
928.735
729.934
821.438
895.257
956.779
1009.19
1054.27
1093.16
1126.74
1155.72
1180.77
1202.48
1221.46
1238.3
1253.71
1268.46
1283.4
1299.84
1319.49
1344.61
1376.28
751.996
798.528
845.513
890.084
931.284
968.909
1003
1033.73
1061.37
1086.25
1108.74
1129.31
1148.46
1166.85
1185.31
1205.06
1227.75
1255.7
1292.02
1338.59
803.537
822.903
843.385
864.023
884.486
904.724
924.676
944.221
963.23
981.609
999.332
1016.46
1033.2
1049.96
1067.42
1086.66
1109.35
1137.97
1176
1226.01
845.986
848.819
854.63
862.546
871.896
882.283
893.421
905.038
916.885
928.748
940.48
952.029
963.466
975.042
987.282
1001.11
1018.05
1040.46
1071.86
1115.14
852.898
860.54
868.552
876.808
885.181
893.616
902.051
910.381
918.47
926.182
933.406
940.084
946.254
952.1
958.039
964.845
973.841
987.139
1008.05
1039.48
854.469
864.526
875.165
885.93
896.497
906.691
916.379
925.421
933.665
940.962
947.187
952.261
956.181
959.068
961.242
963.336
966.474
972.485
984.387
1004.86
854.743
865.262
876.725
888.664
900.657
912.414
923.698
934.274
943.91
952.385
959.508
965.13
969.178
971.69
972.885
973.265
973.774
975.995
982.666
996.174
854.8
865.354
876.954
889.197
901.676
914.084
926.16
937.637
948.246
957.721
965.822
972.348
977.166
980.245
981.726
982.009
981.91
982.835
987.32
997.496
854.818
865.362
876.963
889.254
901.843
914.433
926.765
938.572
949.575
959.5
968.089
975.119
980.429
983.958
985.805
986.321
986.255
986.926
990.765
999.765
854.818
865.362
876.963
889.254
901.843
914.433
926.765
938.572
949.575
959.5
968.089
975.119
980.429
983.958
985.805
986.321
986.255
986.926
990.765
999.765
854.8
865.354
876.954
889.197
901.676
914.084
926.16
937.637
948.246
957.721
965.822
972.348
977.166
980.245
981.726
982.009
981.91
982.835
987.32
997.496
854.743
865.262
876.725
888.664
900.657
912.414
923.698
934.274
943.91
952.385
959.508
965.13
969.178
971.69
972.885
973.265
973.774
975.994
982.666
996.173
854.469
864.526
875.165
885.93
896.497
906.691
916.379
925.421
933.665
940.961
947.187
952.261
956.181
959.067
961.241
963.336
966.473
972.484
984.385
1004.86
852.898
860.54
868.552
876.808
885.181
893.616
902.051
910.38
918.47
926.182
933.405
940.083
946.253
952.099
958.037
964.843
973.838
987.136
1008.05
1039.48
845.986
848.819
854.629
862.546
871.896
882.283
893.42
905.038
916.884
928.747
940.479
952.027
963.464
975.04
987.279
1001.11
1018.04
1040.45
1071.85
1115.14
803.537
822.903
843.385
864.023
884.485
904.723
924.675
944.22
963.229
981.607
999.33
1016.46
1033.2
1049.95
1067.42
1086.66
1109.35
1137.96
1176
1226
751.996
798.528
845.513
890.084
931.283
968.908
1003
1033.73
1061.37
1086.24
1108.74
1129.3
1148.46
1166.84
1185.31
1205.06
1227.75
1255.7
1292.01
1338.58
729.934
821.438
895.257
956.779
1009.19
1054.27
1093.16
1126.74
1155.72
1180.77
1202.48
1221.45
1238.3
1253.71
1268.46
1283.4
1299.83
1319.49
1344.61
1376.27
473.384
498.877
525.55
552.865
580.379
607.775
634.815
661.325
687.176
712.284
736.601
760.115
782.842
804.826
826.141
847.018
867.564
887.927
908.313
928.736
473.378
498.872
525.604
553.064
580.832
608.603
636.149
663.288
689.877
715.809
741.008
765.433
789.069
811.931
834.06
855.525
876.45
897.115
917.682
938.261
730.149
821.743
896.105
958.814
1013
1060.36
1101.95
1138.55
1170.79
1199.24
1224.42
1246.87
1267.14
1285.87
1303.81
1321.87
1341.18
1363.05
1389.25
1420.84
752.553
800.096
849.092
896.609
941.381
982.915
1021.05
1055.81
1087.38
1116.04
1142.17
1166.2
1188.68
1210.28
1231.87
1254.54
1279.78
1309.57
1346.3
1391.62
805.915
828.917
853.482
878.175
902.398
925.994
948.896
971.041
992.387
1012.94
1032.78
1052.07
1071.11
1090.36
1110.49
1132.57
1158.12
1189.25
1228.66
1278.44
854.275
862.914
871.996
881.472
891.293
901.481
912.054
922.986
934.225
945.722
957.461
969.492
981.973
995.227
1009.84
1026.7
1047.23
1073.44
1108.08
1153.52
893.22
891.793
892.265
894.174
897.073
900.682
904.843
909.441
914.384
919.599
925.05
930.762
936.851
943.572
951.397
961.117
973.982
991.87
1017.4
1053.01
899.017
901.884
904.712
907.567
910.405
913.189
915.901
918.515
920.993
923.292
925.38
927.268
929.037
930.886
933.207
936.673
942.383
952.018
968.007
992.725
900.237
905.007
909.905
914.748
919.347
923.579
927.371
930.664
933.395
935.501
936.93
937.659
937.729
937.279
936.62
936.319
937.332
941.154
950.015
966.151
900.442
905.58
911.121
916.857
922.526
927.92
932.888
937.302
941.037
943.974
946.007
947.06
947.113
946.243
944.683
942.906
941.749
942.557
947.4
958.367
900.476
905.654
911.315
917.285
923.303
929.146
934.641
939.634
943.969
947.494
950.068
951.577
951.961
951.254
949.639
947.531
945.699
945.399
948.61
957.327
900.476
905.654
911.315
917.285
923.303
929.146
934.641
939.634
943.969
947.494
950.068
951.577
951.961
951.254
949.639
947.531
945.699
945.399
948.61
957.327
900.442
905.58
911.121
916.857
922.526
927.92
932.888
937.302
941.037
943.974
946.007
947.06
947.113
946.243
944.682
942.905
941.748
942.557
947.399
958.366
900.237
905.007
909.905
914.748
919.347
923.579
927.371
930.664
933.395
935.501
936.93
937.659
937.728
937.278
936.619
936.319
937.331
941.153
950.013
966.148
899.017
901.884
904.712
907.567
910.405
913.189
915.9
918.515
920.993
923.291
925.38
927.267
929.036
930.885
933.205
936.671
942.38
952.015
968.003
992.72
893.22
891.793
892.265
894.174
897.072
900.682
904.842
909.441
914.384
919.599
925.049
930.761
936.85
943.57
951.395
961.114
973.978
991.865
1017.39
1053.01
854.275
862.914
871.996
881.472
891.293
901.48
912.053
922.985
934.224
945.72
957.46
969.49
981.971
995.224
1009.83
1026.7
1047.22
1073.44
1108.08
1153.51
805.915
828.917
853.481
878.175
902.398
925.993
948.895
971.04
992.385
1012.94
1032.78
1052.07
1071.11
1090.35
1110.48
1132.56
1158.11
1189.25
1228.65
1278.43
752.553
800.096
849.092
896.609
941.381
982.915
1021.05
1055.81
1087.38
1116.04
1142.16
1166.19
1188.67
1210.27
1231.86
1254.53
1279.78
1309.56
1346.3
1391.61
730.148
821.743
896.105
958.814
1013
1060.36
1101.95
1138.55
1170.79
1199.24
1224.42
1246.87
1267.14
1285.87
1303.8
1321.86
1341.18
1363.05
1389.24
1420.83
473.378
498.873
525.604
553.065
580.833
608.604
636.15
663.289
689.878
715.81
741.01
765.434
789.07
811.932
834.061
855.526
876.452
897.116
917.683
938.261
473.373
498.861
525.6
553.095
580.929
608.803
636.495
663.827
690.658
716.879
742.413
767.211
791.249
814.531
837.083
858.957
880.229
901.1
921.777
942.407
730.229
821.771
896.164
959.143
1013.89
1062.11
1104.85
1142.86
1176.77
1207.1
1234.34
1258.99
1281.56
1302.64
1322.92
1343.23
1364.63
1388.27
1415.54
1447.56
752.652
800.237
849.571
897.899
943.959
987.201
1027.39
1064.5
1098.64
1130.02
1158.97
1185.88
1211.24
1235.69
1260.02
1285.26
1312.72
1344.03
1381.16
1425.65
806.306
829.977
855.815
882.39
908.957
935.198
960.926
985.988
1010.28
1033.79
1056.56
1078.76
1100.68
1122.79
1145.77
1170.56
1198.49
1231.36
1271.34
1320.32
856.074
867.443
879.59
892.153
904.915
917.824
930.879
944.079
957.422
970.921
984.636
998.69
1013.31
1028.87
1045.92
1065.35
1088.42
1116.87
1152.91
1198.59
900.284
904.036
907.79
911.688
915.751
920.01
924.515
929.313
934.443
939.945
945.885
952.375
959.607
967.904
977.783
990.02
1005.76
1026.64
1054.79
1092.32
935.639
932.131
929.974
928.846
928.419
928.464
928.85
929.502
930.378
931.46
932.766
934.366
936.413
939.174
943.095
948.869
957.542
970.621
990.122
1018.15
940.592
940.858
940.939
940.937
940.845
940.633
940.281
939.775
939.1
938.249
937.231
936.094
934.955
934.035
933.718
934.62
937.692
944.327
956.431
976.069
941.577
943.405
945.184
946.806
948.15
949.118
949.648
949.697
949.233
948.23
946.678
944.604
942.094
939.331
936.652
934.615
934.099
936.414
943.387
957.051
941.731
943.868
946.16
948.461
950.582
952.356
953.659
954.398
954.494
953.886
952.533
950.432
947.641
944.316
940.759
937.494
935.36
935.619
940.059
950.694
941.731
943.868
946.16
948.461
950.582
952.356
953.659
954.398
954.494
953.886
952.533
950.432
947.641
944.316
940.759
937.494
935.359
935.618
940.059
950.693
941.577
943.405
945.184
946.806
948.15
949.118
949.648
949.697
949.233
948.229
946.678
944.604
942.093
939.331
936.652
934.615
934.098
936.412
943.386
957.048
940.592
940.858
940.939
940.937
940.845
940.633
940.281
939.774
939.1
938.249
937.23
936.093
934.954
934.034
933.717
934.619
937.69
944.324
956.427
976.064
935.639
932.131
929.974
928.846
928.419
928.464
928.85
929.502
930.378
931.46
932.765
934.365
936.411
939.172
943.092
948.866
957.539
970.617
990.116
1018.14
900.284
904.036
907.79
911.688
915.751
920.01
924.515
929.313
934.442
939.944
945.884
952.373
959.605
967.901
977.78
990.016
1005.76
1026.64
1054.78
1092.31
856.074
867.443
879.589
892.152
904.915
917.823
930.878
944.079
957.42
970.92
984.634
998.688
1013.31
1028.86
1045.92
1065.34
1088.41
1116.86
1152.9
1198.58
806.306
829.977
855.815
882.39
908.956
935.198
960.925
985.987
1010.28
1033.79
1056.55
1078.76
1100.68
1122.79
1145.76
1170.55
1198.48
1231.35
1271.33
1320.31
752.652
800.237
849.571
897.899
943.959
987.2
1027.39
1064.5
1098.64
1130.02
1158.97
1185.87
1211.24
1235.69
1260.02
1285.26
1312.71
1344.02
1381.15
1425.64
730.229
821.771
896.164
959.143
1013.89
1062.11
1104.85
1142.86
1176.77
1207.1
1234.34
1258.99
1281.56
1302.64
1322.91
1343.23
1364.63
1388.27
1415.53
1447.55
473.373
498.861
525.6
553.096
580.93
608.804
636.496
663.828
690.659
716.88
742.414
767.212
791.25
814.532
837.084
858.959
880.231
901.101
921.778
942.408
473.37
498.855
525.598
553.11
580.976
608.901
636.666
664.096
691.054
717.431
743.147
768.149
792.409
815.921
838.701
860.788
882.242
903.145
923.727
944.198
730.272
821.789
896.156
959.187
1014.11
1062.63
1105.81
1144.43
1179.11
1210.38
1238.74
1264.67
1288.69
1311.34
1333.28
1355.28
1378.29
1403.42
1431.81
1464.57
752.69
800.228
849.554
898.027
944.438
988.25
1029.23
1067.36
1102.72
1135.54
1166.1
1194.78
1222.05
1248.47
1274.79
1301.92
1331.02
1363.52
1401.03
1445.11
806.375
830.077
856.115
883.178
910.544
937.879
964.965
991.624
1017.72
1043.21
1068.11
1092.55
1116.79
1141.25
1166.55
1193.53
1223.36
1257.53
1297.87
1346.19
856.359
868.228
881.292
895.191
909.621
924.433
939.551
954.918
970.495
986.277
1002.31
1018.72
1035.72
1053.69
1073.15
1094.91
1120.06
1150.08
1186.84
1232.28
901.718
907.655
913.866
920.255
926.723
933.246
939.862
946.633
953.63
960.94
968.676
977.002
986.156
996.489
1008.51
1022.96
1040.88
1063.69
1093.22
1131.43
941.757
942.82
943.715
944.612
945.559
946.582
947.713
948.999
950.491
952.248
954.36
956.96
960.253
964.552
970.326
978.264
989.341
1004.91
1026.71
1056.74
974.039
969.352
965.746
962.956
960.711
958.809
957.124
955.585
954.157
952.838
951.663
950.721
950.177
950.305
951.534
954.504
960.145
969.755
985.05
1008.03
978.36
977.015
975.456
973.767
971.942
969.948
967.755
965.346
962.718
959.88
956.87
953.774
950.743
948.037
946.065
945.447
947.094
952.287
962.737
980.474
979.166
979.109
978.893
978.411
977.569
976.29
974.525
972.254
969.475
966.211
962.508
958.459
954.223
950.061
946.384
943.812
943.253
945.995
953.76
968.61
979.166
979.109
978.893
978.411
977.569
976.29
974.525
972.254
969.475
966.211
962.508
958.459
954.223
950.061
946.384
943.811
943.253
945.994
953.759
968.609
978.36
977.015
975.456
973.766
971.942
969.948
967.755
965.346
962.717
959.879
956.87
953.773
950.742
948.036
946.064
945.446
947.092
952.284
962.734
980.47
974.039
969.352
965.746
962.956
960.711
958.809
957.124
955.585
954.157
952.837
951.662
950.72
950.176
950.304
951.532
954.502
960.142
969.751
985.045
1008.02
941.757
942.82
943.715
944.612
945.559
946.581
947.713
948.999
950.49
952.248
954.359
956.958
960.251
964.549
970.323
978.26
989.337
1004.9
1026.7
1056.73
901.718
907.655
913.866
920.254
926.723
933.246
939.862
946.632
953.629
960.938
968.675
977
986.153
996.486
1008.51
1022.95
1040.87
1063.69
1093.21
1131.42
856.359
868.228
881.292
895.191
909.621
924.433
939.551
954.917
970.494
986.276
1002.31
1018.72
1035.72
1053.68
1073.15
1094.91
1120.05
1150.07
1186.83
1232.27
806.375
830.077
856.115
883.178
910.544
937.878
964.964
991.623
1017.72
1043.21
1068.1
1092.54
1116.79
1141.25
1166.54
1193.52
1223.35
1257.52
1297.86
1346.17
752.689
800.228
849.554
898.026
944.437
988.249
1029.23
1067.36
1102.72
1135.54
1166.1
1194.78
1222.04
1248.47
1274.79
1301.91
1331.01
1363.51
1401.02
1445.1
730.272
821.789
896.156
959.187
1014.11
1062.63
1105.81
1144.43
1179.1
1210.38
1238.74
1264.67
1288.68
1311.33
1333.27
1355.28
1378.29
1403.41
1431.8
1464.56
473.37
498.855
525.598
553.111
580.977
608.902
636.666
664.097
691.055
717.432
743.148
768.151
792.41
815.922
838.702
860.79
882.244
903.146
923.728
944.199
473.368
498.853
525.602
553.13
581.023
608.986
636.8
664.292
691.325
717.788
743.602
768.71
793.082
816.706
839.592
861.77
883.288
904.211
924.62
944.817
730.291
821.811
896.187
959.27
1014.32
1063.05
1106.53
1145.56
1180.76
1212.67
1241.81
1268.65
1293.7
1317.5
1340.68
1363.97
1388.21
1414.41
1443.71
1477.17
752.708
800.225
849.528
898.032
944.568
988.614
1029.95
1068.56
1104.55
1138.14
1169.62
1199.36
1227.8
1255.5
1283.13
1311.52
1341.71
1374.93
1412.64
1456.42
806.395
830.067
856.099
883.251
910.84
938.551
966.176
993.542
1020.52
1047.05
1073.15
1098.93
1124.64
1150.63
1177.46
1205.9
1236.95
1271.9
1312.35
1360.11
856.403
868.301
881.517
895.766
910.76
926.345
942.429
958.941
975.826
993.06
1010.67
1028.76
1047.53
1067.29
1088.55
1112
1138.64
1169.73
1206.9
1252.12
901.937
908.278
915.214
922.641
930.396
938.385
946.59
955.032
963.758
972.838
982.378
992.538
1003.55
1015.77
1029.68
1045.97
1065.59
1089.82
1120.27
1158.98
942.94
945.822
948.763
951.732
954.685
957.604
960.511
963.463
966.534
969.818
973.438
977.566
982.443
988.413
995.961
1005.77
1018.76
1036.19
1059.7
1091.35
979.427
978.802
977.969
977.072
976.155
975.228
974.308
973.422
972.615
971.954
971.534
971.506
972.088
973.609
976.539
981.547
989.562
1001.84
1020.04
1046.24
1009.13
1003.66
999.068
995.094
991.494
988.094
984.785
981.516
978.279
975.105
972.068
969.303
967.021
965.547
965.356
967.124
971.799
980.665
995.407
1018.16
1012.87
1010.17
1007.08
1003.68
1000.01
996.088
991.937
987.59
983.099
978.535
974.001
969.65
965.709
962.514
960.551
960.514
963.367
970.42
983.39
1004.45
1012.87
1010.17
1007.08
1003.68
1000.01
996.088
991.937
987.59
983.099
978.535
974.001
969.65
965.709
962.513
960.55
960.513
963.366
970.419
983.388
1004.45
1009.13
1003.66
999.068
995.094
991.494
988.094
984.785
981.516
978.279
975.105
972.068
969.302
967.02
965.546
965.354
967.123
971.797
980.662
995.403
1018.16
979.427
978.802
977.969
977.072
976.154
975.228
974.307
973.421
972.615
971.953
971.533
971.504
972.087
973.607
976.536
981.544
989.558
1001.84
1020.03
1046.23
942.94
945.822
948.763
951.732
954.685
957.603
960.511
963.463
966.533
969.817
973.437
977.564
982.441
988.411
995.958
1005.76
1018.75
1036.18
1059.69
1091.34
901.937
908.278
915.214
922.641
930.395
938.385
946.589
955.032
963.757
972.836
982.376
992.536
1003.55
1015.77
1029.67
1045.96
1065.59
1089.81
1120.26
1158.97
856.403
868.301
881.517
895.765
910.76
926.344
942.428
958.94
975.825
993.059
1010.67
1028.76
1047.52
1067.29
1088.54
1112
1138.63
1169.72
1206.89
1252.1
806.395
830.067
856.099
883.25
910.84
938.551
966.175
993.541
1020.52
1047.05
1073.15
1098.93
1124.63
1150.62
1177.46
1205.89
1236.94
1271.89
1312.34
1360.1
752.708
800.225
849.528
898.032
944.567
988.613
1029.95
1068.56
1104.55
1138.14
1169.62
1199.36
1227.8
1255.49
1283.12
1311.51
1341.7
1374.92
1412.63
1456.41
730.291
821.811
896.187
959.27
1014.32
1063.05
1106.53
1145.56
1180.75
1212.67
1241.81
1268.65
1293.7
1317.5
1340.68
1363.96
1388.2
1414.4
1443.7
1477.16
473.368
498.853
525.603
553.131
581.024
608.987
636.801
664.293
691.326
717.789
743.603
768.712
793.083
816.707
839.593
861.771
883.289
904.213
924.622
944.818
473.366
498.852
525.611
553.156
581.076
609.075
636.935
664.484
691.581
718.118
744.01
769.201
793.653
817.35
840.294
862.506
884.021
904.887
925.166
944.953
730.292
821.828
896.243
959.404
1014.59
1063.52
1107.28
1146.65
1182.29
1214.75
1244.52
1272.1
1297.99
1322.73
1346.92
1371.24
1396.48
1423.54
1453.46
1487.5
752.712
800.229
849.542
898.09
944.724
988.935
1030.51
1069.44
1105.83
1139.92
1172
1202.43
1231.66
1260.2
1288.7
1317.93
1348.82
1382.47
1420.19
1463.65
806.396
830.053
856.077
883.26
910.941
938.816
966.687
994.389
1021.8
1048.87
1075.61
1102.14
1128.66
1155.54
1183.26
1212.53
1244.26
1279.58
1319.95
1367.26
856.405
868.286
881.511
895.834
910.991
926.836
943.286
960.274
977.745
995.675
1014.09
1033.07
1052.81
1073.6
1095.9
1120.36
1147.88
1179.61
1217.08
1262.36
901.959
908.332
915.4
923.1
931.275
939.822
948.708
957.944
967.561
977.618
988.213
999.496
1011.7
1025.15
1040.33
1057.91
1078.8
1104.19
1135.68
1175.45