/*--------------------------------*- C++ -*----------------------------------*\
  =========                 |
  \\      /  F ield         | OpenFOAM: The Open Source CFD Toolbox
   \\    /   O peration     | Website:  https://openfoam.org
    \\  /    A nd           | Version:  10
     \\/     M anipulation  |
\*---------------------------------------------------------------------------*/
FoamFile
{
    format      ascii;
    class       volScalarField;
    location    "200";
    object      nut;
}
// * * * * * * * * * * * * * * * * * * * * * * * * * * * * * * * * * * * * * //

dimensions      [0 2 -1 0 0 0 0];

internalField   nonuniform List<scalar> 
112000
(
0.00603046
0.00609886
0.00616935
0.00624117
0.00631313
0.00638478
0.0064561
0.00652722
0.00659826
0.00666941
0.00674091
0.00681306
0.0068862
0.00696076
0.00703722
0.00711613
0.0071981
0.00728359
0.00737535
0.0074518
0.00609707
0.00623477
0.0063678
0.00649656
0.00662075
0.00674043
0.00685591
0.00696757
0.00707576
0.00718084
0.00728321
0.00738332
0.00748167
0.00757884
0.00767547
0.0077724
0.00787068
0.00797175
0.00808162
0.0081822
0.00610554
0.00626259
0.00641868
0.00657145
0.00671945
0.006862
0.00699892
0.00713033
0.0072565
0.00737778
0.00749461
0.0076075
0.00771699
0.0078237
0.00792832
0.00803168
0.00813485
0.00823922
0.00835117
0.00845146
0.00610728
0.00626956
0.00643463
0.00659916
0.00676078
0.00691799
0.00706993
0.00721614
0.00735649
0.00749104
0.00762002
0.00774382
0.0078629
0.00797783
0.00808926
0.00819796
0.00830486
0.00841109
0.00852263
0.00861775
0.00610742
0.00627044
0.00643745
0.00660509
0.00677085
0.00693312
0.00709089
0.00724353
0.00739071
0.00753234
0.00766851
0.00779948
0.00792562
0.00804741
0.00816542
0.00828031
0.00839292
0.00850413
0.00861958
0.00871553
0.00610738
0.00627036
0.00643761
0.00660595
0.00677295
0.0069371
0.00709741
0.00725322
0.00740415
0.00755
0.00769077
0.00782661
0.0079578
0.00808471
0.00820785
0.00832783
0.00844539
0.00856129
0.00868109
0.00877969
0.00610736
0.00627025
0.00643745
0.00660583
0.006773
0.00693747
0.00709828
0.00725482
0.00740671
0.00755378
0.00769605
0.00783365
0.00796687
0.00809609
0.00822181
0.00834464
0.00846532
0.00858463
0.00870814
0.00881021
0.00610735
0.00627019
0.00643732
0.00660566
0.00677281
0.0069373
0.0070982
0.00725492
0.00740711
0.00755461
0.00769745
0.00783578
0.00796989
0.00810017
0.00822712
0.00835135
0.00847365
0.00859479
0.00872044
0.0088247
0.00610735
0.00627016
0.00643725
0.00660555
0.00677266
0.00693712
0.007098
0.00725471
0.00740692
0.00755447
0.00769739
0.00783587
0.00797018
0.00810075
0.00822808
0.00835281
0.00847573
0.00859766
0.00872435
0.00882982
0.00610734
0.00627015
0.00643722
0.0066055
0.00677259
0.00693703
0.00709789
0.00725459
0.00740678
0.00755433
0.00769726
0.00783577
0.00797014
0.00810079
0.00822824
0.00835313
0.00847626
0.00859848
0.00872555
0.00883149
0.00610734
0.00627015
0.00643722
0.0066055
0.00677259
0.00693703
0.00709789
0.00725459
0.00740678
0.00755433
0.00769726
0.00783577
0.00797014
0.00810079
0.00822824
0.00835313
0.00847626
0.00859848
0.00872555
0.00883149
0.00610735
0.00627016
0.00643725
0.00660555
0.00677266
0.00693712
0.007098
0.00725471
0.00740692
0.00755447
0.00769739
0.00783587
0.00797018
0.00810075
0.00822808
0.00835281
0.00847573
0.00859766
0.00872435
0.00882982
0.00610735
0.00627019
0.00643732
0.00660566
0.00677281
0.0069373
0.0070982
0.00725492
0.00740711
0.00755461
0.00769745
0.00783578
0.00796989
0.00810017
0.00822712
0.00835135
0.00847365
0.00859479
0.00872044
0.0088247
0.00610736
0.00627025
0.00643745
0.00660583
0.006773
0.00693747
0.00709828
0.00725482
0.00740671
0.00755378
0.00769605
0.00783365
0.00796687
0.00809609
0.00822181
0.00834464
0.00846532
0.00858463
0.00870814
0.00881021
0.00610738
0.00627036
0.00643761
0.00660595
0.00677295
0.0069371
0.00709741
0.00725322
0.00740415
0.00755
0.00769077
0.00782661
0.00795779
0.00808471
0.00820785
0.00832783
0.00844538
0.00856129
0.00868108
0.00877969
0.00610742
0.00627044
0.00643745
0.00660509
0.00677085
0.00693312
0.00709089
0.00724353
0.00739071
0.00753234
0.00766851
0.00779948
0.00792562
0.00804741
0.00816541
0.00828031
0.00839292
0.00850412
0.00861958
0.00871553
0.00610728
0.00626956
0.00643463
0.00659916
0.00676077
0.00691799
0.00706993
0.00721614
0.00735649
0.00749103
0.00762002
0.00774382
0.0078629
0.00797783
0.00808926
0.00819796
0.00830486
0.00841109
0.00852263
0.00861775
0.00610554
0.00626259
0.00641868
0.00657145
0.00671945
0.006862
0.00699892
0.00713033
0.0072565
0.00737778
0.00749461
0.0076075
0.00771699
0.0078237
0.00792832
0.00803168
0.00813485
0.00823922
0.00835116
0.00845145
0.00609707
0.00623477
0.0063678
0.00649656
0.00662075
0.00674043
0.00685591
0.00696757
0.00707576
0.00718084
0.00728321
0.00738332
0.00748167
0.00757883
0.00767547
0.00777239
0.00787067
0.00797175
0.00808162
0.0081822
0.00603046
0.00609886
0.00616935
0.00624117
0.00631313
0.00638478
0.0064561
0.00652722
0.00659826
0.00666941
0.00674091
0.00681306
0.0068862
0.00696076
0.00703722
0.00711613
0.00719809
0.00728359
0.00737534
0.00745179
0.00609629
0.00623205
0.00636216
0.00648712
0.0066067
0.006721
0.00683035
0.00693514
0.00703583
0.00713306
0.0072272
0.00731866
0.00740793
0.00749558
0.00758224
0.00766862
0.00775549
0.00784357
0.00793478
0.00802187
0.0579623
0.052188
0.0482551
0.0453088
0.0429819
0.0410726
0.0394604
0.03807
0.0368495
0.0357567
0.0347715
0.0338798
0.033073
0.032347
0.0317029
0.031149
0.0307045
0.0304073
0.0303594
0.0306354
0.0640159
0.0610622
0.0585346
0.05629
0.0542848
0.0524822
0.0508506
0.0493658
0.0480092
0.0467666
0.0456275
0.0445857
0.0436392
0.042791
0.042051
0.0414396
0.0409956
0.0407895
0.0409977
0.041755
0.0644769
0.0621449
0.0602085
0.0584641
0.0568556
0.0553551
0.0539455
0.052617
0.0513638
0.0501829
0.0490731
0.0480354
0.0470735
0.046195
0.0454137
0.0447541
0.0442598
0.0440092
0.0442015
0.0449925
0.0645388
0.0623233
0.0605623
0.0590263
0.0576319
0.0563334
0.0551039
0.0539285
0.0527997
0.0517145
0.0506732
0.0496784
0.0487353
0.0478527
0.0470447
0.0463348
0.0457636
0.0454026
0.0454432
0.0460199
0.0645499
0.0623483
0.0606227
0.0591471
0.0578324
0.0566262
0.0554957
0.0544208
0.0533896
0.0523955
0.0514361
0.0505118
0.0496262
0.0487865
0.0480051
0.0473028
0.0467162
0.0463087
0.0462594
0.0466742
0.0645537
0.0623518
0.0606299
0.0591675
0.0578762
0.0567027
0.055613
0.0545853
0.053606
0.0526666
0.0517629
0.0508936
0.0500607
0.0492698
0.0485318
0.0478655
0.0473044
0.0469071
0.0468449
0.0472026
0.0645557
0.0623526
0.060629
0.0591672
0.0578802
0.0567149
0.0556373
0.0546257
0.0536664
0.0527506
0.0518735
0.0510334
0.0502316
0.0494731
0.0487679
0.0481339
0.0476034
0.0472328
0.0471906
0.0475503
0.0645568
0.0623531
0.0606279
0.059165
0.0578781
0.0567143
0.0556397
0.0546327
0.0536798
0.0527723
0.0519055
0.0510777
0.05029
0.0495474
0.0488597
0.0482448
0.0477345
0.0473847
0.0473634
0.0477392
0.0645573
0.0623534
0.0606274
0.0591638
0.0578765
0.0567128
0.0556386
0.0546327
0.0536813
0.0527761
0.0519123
0.0510883
0.0503055
0.0495687
0.0488878
0.0482807
0.0477793
0.0474395
0.0474295
0.0478162
0.0645573
0.0623534
0.0606274
0.0591638
0.0578765
0.0567128
0.0556386
0.0546327
0.0536813
0.0527761
0.0519123
0.0510883
0.0503055
0.0495687
0.0488878
0.0482807
0.0477793
0.0474395
0.0474295
0.0478162
0.0645568
0.0623531
0.0606279
0.059165
0.0578781
0.0567143
0.0556397
0.0546327
0.0536798
0.0527723
0.0519055
0.0510777
0.05029
0.0495474
0.0488597
0.0482448
0.0477345
0.0473847
0.0473634
0.0477392
0.0645557
0.0623526
0.060629
0.0591672
0.0578802
0.0567149
0.0556373
0.0546257
0.0536664
0.0527506
0.0518735
0.0510334
0.0502316
0.0494731
0.0487679
0.0481339
0.0476034
0.0472328
0.0471906
0.0475503
0.0645537
0.0623518
0.0606299
0.0591675
0.0578762
0.0567027
0.055613
0.0545853
0.053606
0.0526666
0.0517629
0.0508936
0.0500607
0.0492698
0.0485318
0.0478655
0.0473044
0.0469071
0.046845
0.0472026
0.0645499
0.0623483
0.0606227
0.0591471
0.0578324
0.0566262
0.0554957
0.0544208
0.0533896
0.0523955
0.0514361
0.0505118
0.0496262
0.0487865
0.0480051
0.0473028
0.0467162
0.0463087
0.0462594
0.0466743
0.0645388
0.0623233
0.0605623
0.0590263
0.0576319
0.0563334
0.0551039
0.0539285
0.0527997
0.0517145
0.0506732
0.0496784
0.0487353
0.0478527
0.0470447
0.0463348
0.0457636
0.0454026
0.0454432
0.0460199
0.0644769
0.0621449
0.0602085
0.0584641
0.0568556
0.0553551
0.0539455
0.052617
0.0513638
0.0501828
0.0490731
0.0480354
0.0470735
0.046195
0.0454137
0.044754
0.0442598
0.0440092
0.0442015
0.0449925
0.0640159
0.0610622
0.0585346
0.05629
0.0542848
0.0524822
0.0508506
0.0493658
0.0480093
0.0467666
0.0456275
0.0445857
0.0436392
0.042791
0.042051
0.0414396
0.0409956
0.0407895
0.0409978
0.0417551
0.0579623
0.0521881
0.0482551
0.0453088
0.0429819
0.0410726
0.0394604
0.03807
0.0368495
0.0357567
0.0347715
0.0338798
0.033073
0.032347
0.0317029
0.031149
0.0307046
0.0304074
0.0303596
0.0306356
0.00609629
0.00623205
0.00636216
0.00648712
0.0066067
0.006721
0.00683035
0.00693515
0.00703583
0.00713307
0.0072272
0.00731866
0.00740794
0.00749559
0.00758225
0.00766862
0.00775549
0.00784357
0.00793478
0.00802187
0.00610542
0.00626146
0.00641562
0.00656549
0.00670969
0.00684757
0.00697899
0.00710412
0.00722325
0.00733684
0.00744585
0.00755064
0.00765171
0.00774958
0.00784489
0.00793838
0.00803086
0.00812318
0.00821686
0.00830877
0.0640716
0.0611548
0.0586506
0.0564201
0.0544214
0.0526189
0.0509819
0.0494863
0.048113
0.0468453
0.0456517
0.0445313
0.0434843
0.0425133
0.0416253
0.0408312
0.0401521
0.0396244
0.0393207
0.0392727
0.0736609
0.0740551
0.0740839
0.0737484
0.0731296
0.0723089
0.0713513
0.0703073
0.0692162
0.0681054
0.0669925
0.0659001
0.064849
0.0638614
0.0629633
0.0621907
0.0615985
0.0612711
0.0613615
0.0619376
0.0746345
0.0760068
0.0769347
0.0774148
0.0775205
0.0773334
0.0769233
0.0763482
0.0756563
0.0748872
0.0740742
0.0732468
0.0724333
0.0716641
0.0709765
0.0704218
0.0700761
0.0700578
0.0705807
0.0717603
0.0748312
0.0765057
0.0777637
0.0785609
0.0789473
0.0789964
0.0787783
0.0783546
0.0777782
0.0770939
0.0763397
0.075549
0.0747533
0.0739852
0.0732839
0.0727023
0.0723197
0.0722608
0.0727608
0.0739638
0.074869
0.0766132
0.0779901
0.0789428
0.0795001
0.0797182
0.079656
0.0793681
0.0789031
0.078304
0.077608
0.0768481
0.0760553
0.0752615
0.0745036
0.0738308
0.0733158
0.0730731
0.0733297
0.0742241
0.074877
0.0766298
0.0780331
0.0790363
0.079665
0.0799695
0.0800025
0.0798133
0.0794456
0.078938
0.0783239
0.0776333
0.0768943
0.0761356
0.0753906
0.0747032
0.0741384
0.0737981
0.0738936
0.074541
0.07488
0.0766315
0.0780364
0.0790497
0.0796988
0.0800338
0.0801063
0.0799643
0.07965
0.0791998
0.0786452
0.078014
0.0773318
0.076625
0.0759241
0.0752692
0.0747202
0.0743706
0.0744204
0.0749662
0.0748815
0.0766316
0.0780344
0.0790478
0.0797008
0.0800439
0.080129
0.0800041
0.0797114
0.0792871
0.0787623
0.0781638
0.0775167
0.0768462
0.0761814
0.0755607
0.0750413
0.0747127
0.0747694
0.0752962
0.0748822
0.0766316
0.0780331
0.0790456
0.0796988
0.0800434
0.0801316
0.0800114
0.0797254
0.0793098
0.0787957
0.07821
0.0775775
0.0769233
0.0762759
0.0756734
0.075172
0.0748597
0.0749291
0.0754599
0.0748822
0.0766316
0.0780331
0.0790456
0.0796988
0.0800434
0.0801316
0.0800114
0.0797254
0.0793098
0.0787957
0.07821
0.0775775
0.0769233
0.0762759
0.0756734
0.075172
0.0748597
0.0749291
0.0754599
0.0748815
0.0766316
0.0780344
0.0790478
0.0797008
0.0800439
0.080129
0.0800041
0.0797114
0.0792871
0.0787623
0.0781638
0.0775167
0.0768462
0.0761814
0.0755607
0.0750413
0.0747127
0.0747694
0.0752962
0.07488
0.0766315
0.0780364
0.0790497
0.0796988
0.0800338
0.0801063
0.0799643
0.07965
0.0791998
0.0786452
0.078014
0.0773318
0.076625
0.0759241
0.0752693
0.0747202
0.0743706
0.0744204
0.0749663
0.074877
0.0766298
0.0780331
0.0790363
0.079665
0.0799695
0.0800025
0.0798133
0.0794456
0.078938
0.0783239
0.0776333
0.0768943
0.0761356
0.0753906
0.0747032
0.0741384
0.0737981
0.0738937
0.0745411
0.074869
0.0766132
0.0779901
0.0789428
0.0795001
0.0797182
0.079656
0.0793681
0.0789031
0.078304
0.077608
0.076848
0.0760553
0.0752614
0.0745036
0.0738308
0.0733158
0.0730731
0.0733297
0.0742241
0.0748312
0.0765057
0.0777637
0.0785609
0.0789473
0.0789964
0.0787783
0.0783546
0.0777782
0.0770939
0.0763397
0.075549
0.0747532
0.0739852
0.0732838
0.0727022
0.0723197
0.0722608
0.0727608
0.0739638
0.0746345
0.0760068
0.0769347
0.0774148
0.0775205
0.0773334
0.0769233
0.0763482
0.0756562
0.0748872
0.0740742
0.0732468
0.0724332
0.071664
0.0709765
0.0704218
0.0700761
0.0700578
0.0705808
0.0717604
0.0736609
0.0740551
0.0740839
0.0737484
0.0731296
0.0723089
0.0713513
0.0703073
0.0692162
0.0681054
0.0669926
0.0659001
0.0648491
0.0638615
0.0629633
0.0621908
0.0615986
0.0612713
0.0613618
0.0619379
0.0640716
0.0611548
0.0586506
0.0564201
0.0544214
0.0526189
0.0509819
0.0494862
0.048113
0.0468453
0.0456517
0.0445313
0.0434843
0.0425133
0.0416254
0.0408313
0.0401522
0.0396245
0.0393209
0.039273
0.00610542
0.00626146
0.00641562
0.0065655
0.00670969
0.00684757
0.006979
0.00710412
0.00722325
0.00733684
0.00744585
0.00755065
0.00765171
0.00774958
0.00784489
0.00793838
0.00803087
0.00812318
0.00821686
0.00830877
0.00610724
0.00626869
0.00643201
0.00659383
0.00675176
0.00690434
0.00705074
0.00719055
0.00732364
0.00745011
0.00757023
0.00768439
0.00779308
0.00789688
0.00799648
0.00809336
0.00818831
0.00828218
0.00837619
0.00846936
0.0645384
0.0622526
0.0603488
0.0586268
0.057034
0.0555451
0.0541443
0.0528222
0.0515729
0.0503926
0.0492785
0.0482296
0.0472471
0.0463362
0.0455093
0.0447451
0.0440652
0.0435044
0.0431143
0.0429202
0.0747032
0.0761131
0.0770681
0.0775677
0.0776871
0.0775089
0.0771029
0.0765263
0.075826
0.0750404
0.0742011
0.0733366
0.0724741
0.0716379
0.070843
0.0701286
0.069549
0.0691809
0.0691356
0.0694702
0.07722
0.0780215
0.0790208
0.0800315
0.0809505
0.0817279
0.0823396
0.0827775
0.0830462
0.0831593
0.0831369
0.0830021
0.0827823
0.0825129
0.0822375
0.0820137
0.0819225
0.0820776
0.0826459
0.0837268
0.0777338
0.0788192
0.0799175
0.0809578
0.0819034
0.0827373
0.0834481
0.084028
0.0844747
0.0847921
0.0849898
0.0850833
0.0850946
0.0850536
0.0850021
0.0849996
0.0851336
0.0855325
0.0863949
0.0878542
0.0778647
0.0791373
0.0804198
0.0816174
0.0826842
0.0836025
0.084365
0.0849694
0.0854187
0.0857207
0.0858877
0.0859363
0.0858885
0.0857727
0.0856285
0.0855119
0.0855069
0.0857397
0.0864167
0.0876895
0.0778909
0.07921
0.0805686
0.0818658
0.083044
0.0840742
0.0849407
0.0856356
0.0861578
0.0865123
0.0867095
0.0867643
0.0866964
0.0865318
0.0863058
0.0860688
0.0858963
0.0859029
0.086285
0.0871896
0.0778967
0.0792219
0.0805973
0.081927
0.0831527
0.0842425
0.0851768
0.085944
0.0865393
0.086964
0.087225
0.0873336
0.0873061
0.0871647
0.0869401
0.0866767
0.0864415
0.086337
0.0865463
0.0872005
0.0778987
0.0792235
0.0806
0.0819359
0.0831751
0.0842858
0.0852483
0.0860502
0.0866856
0.0871546
0.087462
0.0876173
0.0876344
0.0875329
0.0873402
0.0870966
0.0868637
0.0867358
0.0868861
0.0874323
0.0778996
0.0792237
0.0805992
0.0819355
0.0831772
0.0842933
0.0852642
0.0860778
0.0867281
0.087215
0.087543
0.0877209
0.0877617
0.087684
0.0875137
0.0872894
0.0870699
0.0869461
0.0870863
0.0876011
0.0778996
0.0792237
0.0805992
0.0819355
0.0831772
0.0842933
0.0852642
0.0860778
0.0867281
0.087215
0.087543
0.0877209
0.0877617
0.087684
0.0875137
0.0872894
0.0870699
0.0869461
0.0870863
0.0876011
0.0778987
0.0792235
0.0806
0.0819359
0.0831751
0.0842858
0.0852483
0.0860502
0.0866856
0.0871546
0.087462
0.0876173
0.0876344
0.0875329
0.0873402
0.0870966
0.0868637
0.0867358
0.0868861
0.0874323
0.0778967
0.0792219
0.0805973
0.081927
0.0831527
0.0842425
0.0851768
0.085944
0.0865393
0.086964
0.087225
0.0873336
0.0873061
0.0871647
0.0869401
0.0866767
0.0864415
0.086337
0.0865463
0.0872005
0.0778909
0.07921
0.0805686
0.0818658
0.083044
0.0840742
0.0849407
0.0856356
0.0861578
0.0865123
0.0867095
0.0867643
0.0866964
0.0865318
0.0863058
0.0860688
0.0858963
0.0859028
0.086285
0.0871895
0.0778647
0.0791373
0.0804198
0.0816174
0.0826842
0.0836025
0.084365
0.0849694
0.0854187
0.0857207
0.0858877
0.0859363
0.0858884
0.0857727
0.0856284
0.0855119
0.0855069
0.0857397
0.0864166
0.0876894
0.0777338
0.0788192
0.0799175
0.0809578
0.0819034
0.0827373
0.0834481
0.0840279
0.0844747
0.0847921
0.0849898
0.0850833
0.0850945
0.0850535
0.085002
0.0849996
0.0851335
0.0855325
0.0863949
0.0878542
0.07722
0.0780215
0.0790208
0.0800315
0.0809505
0.0817279
0.0823395
0.0827775
0.0830462
0.0831593
0.0831369
0.0830021
0.0827823
0.0825129
0.0822374
0.0820137
0.0819225
0.0820776
0.0826459
0.0837269
0.0747032
0.0761131
0.0770681
0.0775677
0.0776871
0.0775089
0.0771029
0.0765263
0.075826
0.0750404
0.0742011
0.0733366
0.0724741
0.0716379
0.070843
0.0701286
0.0695491
0.0691811
0.0691358
0.0694705
0.0645384
0.0622526
0.0603488
0.0586268
0.057034
0.055545
0.0541442
0.0528221
0.0515728
0.0503926
0.0492784
0.0482295
0.0472471
0.0463361
0.0455093
0.0447451
0.0440652
0.0435044
0.0431144
0.0429203
0.00610724
0.00626869
0.00643202
0.00659383
0.00675176
0.00690435
0.00705075
0.00719056
0.00732365
0.00745012
0.00757024
0.00768439
0.00779308
0.00789689
0.00799649
0.00809336
0.00818832
0.00828219
0.0083762
0.00846936
0.00610739
0.00626968
0.00643511
0.00660021
0.00676246
0.00692022
0.00707249
0.00721865
0.00735838
0.00749161
0.00761841
0.00773906
0.0078539
0.00796342
0.00806818
0.00816949
0.00826798
0.00836445
0.00845992
0.0085545
0.0646002
0.0624347
0.0607119
0.0592049
0.0578335
0.056555
0.0553446
0.0541887
0.0530807
0.0520181
0.051001
0.0500316
0.0491141
0.0482551
0.0474651
0.0467344
0.0460853
0.0455447
0.0451462
0.0449059
0.0749161
0.0766524
0.0779677
0.0788193
0.0792588
0.0793606
0.0791949
0.078823
0.078297
0.077661
0.0769519
0.0762017
0.07544
0.0746972
0.0740022
0.0733771
0.0728718
0.0725501
0.0724901
0.0727336
0.0778071
0.0789472
0.080102
0.0812019
0.0822107
0.0831112
0.0838914
0.0845429
0.0850623
0.0854527
0.0857233
0.0858892
0.085972
0.0859978
0.0860016
0.0860351
0.0861695
0.0865009
0.0871512
0.0881983
0.0797352
0.0800561
0.0805855
0.0812512
0.0819965
0.082783
0.0835804
0.0843628
0.0851081
0.0857994
0.0864262
0.0869848
0.0874802
0.087928
0.0883579
0.0888181
0.0893834
0.0901618
0.0913006
0.0929049
0.0801524
0.0807171
0.0813177
0.0819479
0.0825969
0.0832547
0.0839104
0.0845512
0.0851635
0.0857356
0.0862588
0.0867292
0.0871496
0.0875322
0.0879023
0.0883045
0.0888105
0.0895294
0.0906191
0.0922047
0.0802501
0.080957
0.0816979
0.0824476
0.0831863
0.0839013
0.0845818
0.0852166
0.0857951
0.0863079
0.0867482
0.0871133
0.087406
0.087637
0.087829
0.0880221
0.0882824
0.0887127
0.0894694
0.0906858
0.080269
0.0810107
0.0818071
0.0826289
0.0834485
0.0842456
0.085003
0.0857049
0.0863368
0.0868863
0.0873443
0.0877054
0.08797
0.0881455
0.0882502
0.0883185
0.0884089
0.0886138
0.0890809
0.0899388
0.0802728
0.0810195
0.0818287
0.0826737
0.083527
0.0843664
0.0851724
0.0859264
0.0866111
0.0872113
0.0877148
0.0881133
0.0884039
0.0885905
0.0886873
0.0887233
0.0887501
0.0888516
0.0891659
0.089813
0.0802739
0.0810206
0.0818313
0.0826813
0.0835439
0.0843971
0.0852214
0.0859977
0.0867078
0.0873353
0.0878667
0.0882922
0.0886069
0.0888129
0.0889218
0.0889598
0.0889749
0.0890457
0.0893051
0.089867
0.0802739
0.0810206
0.0818313
0.0826813
0.0835439
0.0843971
0.0852214
0.0859977
0.0867077
0.0873353
0.0878667
0.0882922
0.0886069
0.0888129
0.0889218
0.0889598
0.0889749
0.0890457
0.0893051
0.089867
0.0802728
0.0810195
0.0818287
0.0826737
0.083527
0.0843664
0.0851724
0.0859264
0.0866111
0.0872113
0.0877148
0.0881133
0.0884039
0.0885905
0.0886873
0.0887233
0.0887501
0.0888516
0.0891659
0.089813
0.080269
0.0810107
0.0818071
0.0826289
0.0834485
0.0842456
0.085003
0.0857049
0.0863368
0.0868863
0.0873442
0.0877054
0.08797
0.0881455
0.0882502
0.0883185
0.0884088
0.0886137
0.0890808
0.0899388
0.0802501
0.080957
0.0816979
0.0824475
0.0831863
0.0839013
0.0845818
0.0852166
0.0857951
0.0863079
0.0867482
0.0871133
0.0874059
0.087637
0.087829
0.088022
0.0882824
0.0887126
0.0894693
0.0906857
0.0801524
0.0807171
0.0813177
0.0819479
0.0825969
0.0832547
0.0839104
0.0845511
0.0851635
0.0857356
0.0862588
0.0867292
0.0871496
0.0875321
0.0879023
0.0883044
0.0888104
0.0895293
0.0906189
0.0922045
0.0797352
0.0800561
0.0805855
0.0812512
0.0819965
0.0827829
0.0835804
0.0843628
0.0851081
0.0857993
0.0864261
0.0869847
0.0874801
0.087928
0.0883578
0.088818
0.0893832
0.0901617
0.0913004
0.0929048
0.0778071
0.0789472
0.080102
0.0812019
0.0822107
0.0831112
0.0838914
0.0845428
0.0850622
0.0854527
0.0857232
0.0858891
0.0859719
0.0859977
0.0860015
0.0860351
0.0861694
0.0865008
0.0871512
0.0881984
0.0749161
0.0766524
0.0779677
0.0788193
0.0792588
0.0793606
0.0791949
0.078823
0.078297
0.077661
0.0769518
0.0762017
0.07544
0.0746971
0.0740022
0.0733771
0.0728718
0.0725502
0.0724903
0.0727338
0.0646002
0.0624348
0.0607119
0.0592049
0.0578335
0.0565549
0.0553445
0.0541887
0.0530807
0.052018
0.0510009
0.0500315
0.049114
0.0482551
0.0474651
0.0467344
0.0460854
0.0455447
0.0451463
0.0449061
0.00610739
0.00626969
0.00643511
0.00660022
0.00676246
0.00692022
0.00707249
0.00721865
0.00735839
0.00749161
0.00761842
0.00773906
0.00785391
0.00796342
0.00806819
0.00816949
0.00826798
0.00836445
0.00845993
0.0085545
0.00610735
0.00626965
0.00643544
0.00660141
0.0067651
0.00692494
0.00707992
0.00722936
0.00737284
0.00751013
0.00764118
0.00776609
0.00788508
0.00799849
0.00810676
0.00821041
0.00831022
0.00840761
0.00850344
0.00859826
0.0646099
0.0624583
0.0607717
0.0593261
0.0580356
0.056851
0.0557418
0.0546899
0.0536848
0.0527211
0.051797
0.0509135
0.0500741
0.049285
0.0485557
0.0478985
0.0473296
0.0468448
0.0464709
0.0462224
0.0749549
0.0767661
0.0782091
0.0792286
0.0798554
0.0801475
0.0801651
0.0799637
0.0795931
0.0790967
0.0785126
0.0778743
0.0772131
0.0765596
0.0759467
0.075413
0.0749903
0.0747218
0.0746657
0.0748564
0.0779531
0.0793024
0.0806706
0.0819643
0.0831396
0.0841806
0.0850811
0.0858397
0.08646
0.0869505
0.0873243
0.0875994
0.0877987
0.0879515
0.0880955
0.0882742
0.088546
0.0889895
0.0896954
0.0907257
0.0802184
0.0808312
0.0814825
0.08217
0.0828858
0.0836227
0.0843723
0.0851234
0.0858644
0.0865846
0.0872767
0.0879381
0.0885729
0.0891944
0.0898264
0.0905097
0.0913059
0.0923018
0.0936057
0.0952998
0.08193
0.0820163
0.0822406
0.0825669
0.0829645
0.0834132
0.0839001
0.084415
0.0849485
0.0854923
0.0860403
0.0865894
0.0871415
0.0877062
0.0883048
0.0889743
0.0897748
0.0907949
0.0921517
0.093944
0.0822795
0.0825909
0.0829103
0.0832455
0.0835958
0.0839587
0.0843316
0.0847109
0.0850915
0.0854684
0.0858371
0.0861952
0.0865447
0.0868942
0.0872629
0.0876853
0.0882185
0.0889487
0.0899961
0.09147
0.0823561
0.0827816
0.0832158
0.0836516
0.0840811
0.084499
0.0849018
0.0852858
0.0856466
0.0859793
0.0862796
0.0865445
0.0867748
0.0869771
0.0871674
0.0873763
0.0876554
0.0880854
0.0887829
0.0898607
0.0823704
0.0828236
0.0833016
0.0837934
0.0842855
0.0847669
0.0852292
0.0856651
0.0860668
0.086427
0.0867389
0.0869973
0.0872005
0.0873521
0.0874647
0.0875647
0.0876984
0.0879402
0.0884014
0.0891931
0.0823729
0.0828305
0.0833188
0.0838281
0.0843442
0.0848547
0.0853493
0.0858183
0.0862522
0.0866413
0.0869767
0.0872513
0.0874612
0.087608
0.0877018
0.0877661
0.087844
0.088006
0.0883596
0.0890137
0.0823729
0.0828305
0.0833188
0.0838281
0.0843442
0.0848547
0.0853493
0.0858183
0.0862522
0.0866413
0.0869767
0.0872513
0.0874612
0.087608
0.0877018
0.0877661
0.087844
0.088006
0.0883596
0.0890137
0.0823704
0.0828236
0.0833016
0.0837934
0.0842855
0.0847669
0.0852292
0.0856651
0.0860668
0.086427
0.0867389
0.0869973
0.0872005
0.0873521
0.0874647
0.0875646
0.0876983
0.0879402
0.0884014
0.089193
0.0823561
0.0827816
0.0832158
0.0836516
0.0840811
0.084499
0.0849018
0.0852858
0.0856466
0.0859793
0.0862795
0.0865445
0.0867748
0.0869771
0.0871674
0.0873762
0.0876553
0.0880853
0.0887828
0.0898605
0.0822795
0.0825909
0.0829103
0.0832455
0.0835958
0.0839587
0.0843316
0.0847109
0.0850915
0.0854684
0.085837
0.0861951
0.0865446
0.0868942
0.0872628
0.0876852
0.0882183
0.0889486
0.0899958
0.0914697
0.08193
0.0820163
0.0822406
0.0825669
0.0829645
0.0834132
0.0839001
0.084415
0.0849484
0.0854923
0.0860402
0.0865893
0.0871414
0.0877061
0.0883046
0.0889742
0.0897747
0.0907947
0.0921515
0.0939437
0.0802184
0.0808312
0.0814825
0.08217
0.0828858
0.0836227
0.0843722
0.0851234
0.0858643
0.0865845
0.0872766
0.087938
0.0885728
0.0891943
0.0898262
0.0905095
0.0913057
0.0923016
0.0936055
0.0952996
0.0779531
0.0793024
0.0806706
0.0819643
0.0831396
0.0841806
0.085081
0.0858396
0.0864599
0.0869504
0.0873242
0.0875993
0.0877986
0.0879513
0.0880954
0.088274
0.0885458
0.0889894
0.0896953
0.0907256
0.0749549
0.0767661
0.0782091
0.0792286
0.0798554
0.0801475
0.0801651
0.0799637
0.0795931
0.0790967
0.0785126
0.0778743
0.077213
0.0765596
0.0759466
0.0754129
0.0749902
0.0747217
0.0746657
0.0748565
0.0646099
0.0624583
0.0607717
0.0593261
0.0580356
0.056851
0.0557418
0.0546899
0.0536848
0.0527211
0.0517969
0.0509134
0.050074
0.0492849
0.0485556
0.0478984
0.0473296
0.0468448
0.0464709
0.0462225
0.00610735
0.00626966
0.00643544
0.00660141
0.0067651
0.00692494
0.00707992
0.00722936
0.00737284
0.00751013
0.00764118
0.00776609
0.00788509
0.0079985
0.00810676
0.00821042
0.00831022
0.00840762
0.00850345
0.00859826
0.00610732
0.00626958
0.00643541
0.00660159
0.00676566
0.00692608
0.00708184
0.0072323
0.00737701
0.00751574
0.00764842
0.0077751
0.00789597
0.00801129
0.00812144
0.00822687
0.00832811
0.00842626
0.00852239
0.00861723
0.0646125
0.0624606
0.0607785
0.0593475
0.0580822
0.0569325
0.0558665
0.0548643
0.053914
0.0530082
0.0521438
0.0513201
0.0505395
0.0498071
0.0491306
0.0485214
0.0479943
0.0475544
0.0472109
0.0469775
0.0749619
0.0767823
0.0782542
0.0793282
0.080032
0.0804178
0.0805403
0.0804502
0.0801933
0.0798098
0.0793353
0.0788017
0.0782391
0.0776767
0.0771457
0.0766804
0.076321
0.0760985
0.0760519
0.0762131
0.0779805
0.0793807
0.0808334
0.0822401
0.0835455
0.0847235
0.0857613
0.0866534
0.0874016
0.088014
0.0885042
0.0888911
0.0891985
0.0894562
0.0897009
0.089978
0.0903407
0.0908484
0.091573
0.0925694
0.0803301
0.0811044
0.081922
0.0827619
0.0836092
0.0844559
0.0852961
0.0861234
0.0869313
0.0877151
0.0884727
0.089206
0.0899228
0.0906385
0.0913778
0.0921785
0.0930928
0.0941919
0.0955601
0.0972672
0.082339
0.0826925
0.0830559
0.0834409
0.08385
0.084284
0.0847435
0.085228
0.0857359
0.0862656
0.0868163
0.0873895
0.087991
0.088633
0.0893372
0.0901382
0.0910882
0.0922603
0.093746
0.0956278
0.0838583
0.0838398
0.0839181
0.0840676
0.0842664
0.0844999
0.0847595
0.08504
0.0853381
0.0856516
0.0859799
0.0863253
0.0866939
0.0870977
0.0875582
0.0881093
0.0888031
0.0897138
0.0909375
0.0925679
0.084156
0.0843383
0.0845154
0.0846964
0.0848826
0.0850727
0.0852653
0.0854587
0.0856513
0.0858412
0.0860278
0.0862122
0.0863992
0.0865992
0.0868313
0.0871274
0.0875369
0.0881323
0.0890103
0.0902709
0.0842182
0.0844949
0.084768
0.0850338
0.0852879
0.0855267
0.0857478
0.0859493
0.0861296
0.086287
0.0864203
0.0865302
0.0866205
0.0867002
0.0867863
0.0869085
0.0871137
0.0874719
0.0880791
0.0890382
0.084229
0.0845284
0.0848358
0.0851437
0.0854425
0.0857243
0.085983
0.0862141
0.086414
0.0865794
0.0867083
0.0868002
0.0868582
0.0868903
0.0869125
0.086953
0.0870575
0.0872945
0.0877593
0.0885564
0.084229
0.0845284
0.0848358
0.0851437
0.0854425
0.0857243
0.085983
0.0862141
0.086414
0.0865794
0.0867083
0.0868002
0.0868582
0.0868903
0.0869125
0.086953
0.0870575
0.0872944
0.0877593
0.0885564
0.0842182
0.0844949
0.084768
0.0850338
0.0852879
0.0855267
0.0857478
0.0859493
0.0861296
0.0862869
0.0864203
0.0865302
0.0866205
0.0867001
0.0867863
0.0869085
0.0871136
0.0874718
0.088079
0.0890381
0.084156
0.0843383
0.0845154
0.0846964
0.0848826
0.0850727
0.0852653
0.0854587
0.0856513
0.0858412
0.0860278
0.0862122
0.0863991
0.0865991
0.0868313
0.0871273
0.0875368
0.0881321
0.0890101
0.0902706
0.0838583
0.0838398
0.0839181
0.0840676
0.0842664
0.0844999
0.0847595
0.08504
0.0853381
0.0856516
0.0859799
0.0863253
0.0866938
0.0870977
0.0875581
0.0881092
0.088803
0.0897136
0.0909372
0.0925675
0.082339
0.0826925
0.0830559
0.0834409
0.08385
0.084284
0.0847435
0.0852279
0.0857359
0.0862656
0.0868162
0.0873894
0.0879909
0.0886329
0.089337
0.090138
0.0910879
0.09226
0.0937456
0.0956274
0.08033
0.0811044
0.081922
0.0827619
0.0836092
0.0844559
0.0852961
0.0861233
0.0869313
0.0877151
0.0884726
0.0892059
0.0899227
0.0906383
0.0913776
0.0921783
0.0930925
0.0941917
0.0955598
0.0972668
0.0779805
0.0793807
0.0808334
0.0822401
0.0835455
0.0847235
0.0857612
0.0866533
0.0874016
0.0880139
0.0885041
0.0888909
0.0891984
0.0894561
0.0897007
0.0899778
0.0903405
0.0908482
0.0915728
0.0925692
0.0749619
0.0767823
0.0782542
0.0793282
0.080032
0.0804178
0.0805403
0.0804502
0.0801933
0.0798097
0.0793352
0.0788017
0.078239
0.0776766
0.0771456
0.0766803
0.0763209
0.0760985
0.0760519
0.0762131
0.0646125
0.0624606
0.0607785
0.0593475
0.0580822
0.0569325
0.0558664
0.0548643
0.0539139
0.0530082
0.0521437
0.05132
0.0505395
0.049807
0.0491305
0.0485213
0.0479942
0.0475544
0.0472109
0.0469776
0.00610732
0.00626958
0.00643542
0.0066016
0.00676567
0.00692608
0.00708185
0.0072323
0.00737701
0.00751574
0.00764842
0.00777511
0.00789597
0.00801129
0.00812144
0.00822687
0.00832812
0.00842627
0.0085224
0.00861724
0.0061073
0.00626955
0.0064354
0.00660168
0.00676594
0.00692663
0.00708279
0.00723376
0.00737912
0.00751863
0.0076522
0.00777986
0.00790175
0.00801812
0.00812928
0.00823563
0.00833763
0.00843582
0.0085314
0.00862542
0.0646138
0.0624608
0.060778
0.0593494
0.0580908
0.0569523
0.0559019
0.0549198
0.0539939
0.0531165
0.052284
0.0514951
0.0507516
0.0500572
0.0494189
0.0488461
0.0483518
0.047951
0.0476436
0.0474365
0.0749639
0.0767833
0.0782581
0.0793443
0.0800715
0.0804914
0.0806578
0.0806202
0.0804228
0.0801045
0.0796989
0.0792365
0.0787451
0.0782522
0.077786
0.0773772
0.0770602
0.0768727
0.0768427
0.0769937
0.0779855
0.0793921
0.0808637
0.082307
0.0836663
0.084913
0.0860311
0.0870123
0.0878559
0.0885675
0.0891589
0.089647
0.0900543
0.0904083
0.0907431
0.0910997
0.0915274
0.0920839
0.0928198
0.093789
0.0803503
0.0811632
0.0820438
0.0829675
0.0839123
0.0848637
0.0858111
0.0867452
0.0876581
0.0885446
0.0894029
0.0902357
0.0910514
0.0918654
0.0927017
0.0935952
0.0945928
0.0957539
0.097148
0.0988415
0.0824284