/*--------------------------------*- C++ -*----------------------------------*\
  =========                 |
  \\      /  F ield         | OpenFOAM: The Open Source CFD Toolbox
   \\    /   O peration     | Website:  https://openfoam.org
    \\  /    A nd           | Version:  10
     \\/     M anipulation  |
\*---------------------------------------------------------------------------*/
FoamFile
{
    format      ascii;
    class       volScalarField;
    location    "200";
    object      p;
}
// * * * * * * * * * * * * * * * * * * * * * * * * * * * * * * * * * * * * * //

dimensions      [1 -1 -2 0 0 0 0];

internalField   nonuniform List<scalar> 
112000
(
197858
197124
196562
196242
196013
195784
195522
195217
194857
194427
193910
193285
192524
191593
190442
189001
187161
184751
181453
176773
196302
196185
196015
195874
195738
195570
195354
195083
194748
194338
193836
193223
192473
191550
190406
188970
187135
184726
181424
176746
196487
196434
196311
196152
195973
195765
195518
195221
194865
194436
193919
193293
192531
191598
190444
188997
187150
184726
181402
176702
196479
196347
196175
196000
195820
195619
195383
195098
194753
194334
193825
193206
192449
191518
190364
188914
187059
184621
181272
176537
196461
196325
196164
196011
195849
195659
195427
195143
194796
194374
193860
193234
192469
191528
190362
188898
187023
184560
181174
176393
196441
196304
196142
195987
195822
195628
195392
195104
194755
194330
193813
193184
192415
191470
190296
188821
186931
184446
181029
176205
196423
196287
196126
195973
195810
195618
195384
195099
194750
194325
193807
193175
192402
191451
190269
188782
186877
184371
180926
176064
196409
196273
196113
195962
195800
195607
195373
195086
194735
194308
193787
193152
192375
191418
190229
188733
186817
184294
180826
175935
196400
196264
196105
195954
195792
195600
195366
195078
194727
194299
193778
193141
192361
191401
190208
188706
186781
184247
180765
175853
196395
196260
196101
195950
195789
195597
195362
195074
194723
194294
193772
193134
192353
191390
190195
188689
186760
184221
180731
175808
196395
196260
196101
195950
195789
195597
195362
195074
194723
194294
193772
193134
192353
191390
190195
188689
186760
184221
180731
175808
196400
196264
196105
195954
195792
195600
195366
195078
194727
194299
193778
193141
192361
191401
190208
188706
186781
184247
180765
175853
196409
196273
196113
195962
195800
195607
195373
195086
194735
194308
193787
193152
192375
191418
190229
188733
186816
184294
180826
175935
196423
196287
196126
195973
195810
195618
195384
195099
194750
194325
193807
193175
192402
191451
190269
188782
186877
184371
180925
176064
196441
196304
196142
195987
195822
195628
195392
195104
194755
194330
193813
193184
192415
191469
190296
188820
186931
184446
181029
176205
196461
196325
196164
196011
195849
195659
195427
195143
194796
194374
193860
193234
192469
191528
190362
188897
187023
184559
181174
176392
196479
196347
196175
196000
195820
195619
195383
195098
194753
194334
193825
193206
192449
191518
190364
188914
187059
184621
181272
176536
196487
196434
196311
196152
195973
195765
195518
195221
194865
194436
193919
193293
192531
191598
190443
188997
187149
184726
181402
176702
196302
196185
196015
195874
195738
195570
195354
195083
194748
194337
193836
193223
192473
191550
190406
188970
187134
184726
181424
176746
197858
197124
196562
196242
196013
195783
195522
195217
194857
194427
193910
193285
192524
191593
190442
189000
187161
184750
181452
176772
196339
196222
196052
195912
195777
195610
195398
195131
194802
194400
193909
193311
192581
191685
190581
189205
187468
185241
182322
178496
194944
195215
195416
195487
195466
195372
195210
194981
194680
194299
193823
193237
192515
191625
190523
189147
187407
185171
182236
178406
195117
195444
195674
195732
195676
195546
195356
195103
194781
194382
193891
193291
192556
191653
190539
189149
187393
185136
182174
178324
195079
195361
195547
195589
195533
195412
195232
194989
194678
194286
193802
193206
192474
191572
190455
189058
187292
185018
182029
178150
195049
195340
195535
195591
195549
195436
195260
195018
194705
194310
193821
193219
192479
191567
190438
189028
187242
184943
181920
178002
195024
195318
195514
195568
195523
195408
195228
194984
194668
194271
193779
193173
192429
191511
190374
188951
187149
184828
181774
177817
195004
195300
195499
195554
195510
195396
195218
194975
194659
194262
193768
193159
192410
191487
190341
188906
187089
184747
181664
177673
194989
195286
195487
195543
195500
195385
195207
194962
194645
194245
193749
193137
192384
191455
190302
188858
187028
184669
181564
177545
194979
195276
195479
195536
195493
195378
195199
194954
194637
194236
193739
193125
192369
191436
190279
188829
186990
184621
181501
177462
194974
195272
195475
195533
195490
195374
195195
194950
194632
194231
193733
193118
192361
191426
190265
188812
186969
184594
181466
177417
194974
195272
195475
195533
195490
195374
195195
194950
194632
194231
193733
193118
192361
191426
190265
188812
186969
184594
181466
177417
194979
195276
195479
195536
195493
195378
195199
194954
194637
194236
193739
193125
192369
191436
190279
188829
186990
184620
181500
177462
194989
195286
195487
195543
195500
195385
195207
194962
194645
194245
193749
193137
192384
191455
190301
188858
187027
184669
181564
177545
195004
195300
195499
195554
195510
195396
195218
194975
194659
194262
193768
193159
192410
191486
190340
188906
187088
184747
181664
177672
195024
195318
195514
195568
195523
195407
195228
194984
194668
194271
193779
193173
192429
191511
190374
188951
187149
184828
181773
177817
195049
195340
195535
195591
195549
195436
195260
195018
194705
194310
193821
193219
192479
191567
190438
189027
187241
184943
181920
178001
195079
195361
195547
195589
195533
195412
195232
194989
194678
194286
193802
193206
192474
191572
190454
189058
187291
185018
182029
178149
195117
195444
195674
195732
195676
195546
195356
195102
194781
194382
193891
193290
192555
191653
190539
189149
187392
185136
182173
178323
194944
195215
195416
195487
195466
195372
195210
194981
194680
194299
193823
193237
192515
191625
190523
189147
187407
185171
182235
178405
196339
196222
196052
195912
195776
195610
195398
195131
194802
194400
193909
193311
192581
191685
190581
189204
187468
185241
182322
178495
196592
196538
196416
196261
196088
195890
195657
195379
195047
194649
194172
193598
192905
192063
191037
189775
188214
186264
183810
180756
195189
195516
195747
195808
195757
195635
195455
195216
194912
194536
194075
193512
192826
191989
190964
189701
188133
186172
183698
180631
195903
195974
196092
196089
195977
195803
195582
195311
194983
194587
194108
193530
192831
191980
190941
189663
188077
186093
183587
180494
195825
195877
195945
195929
195827
195665
195456
195197
194878
194489
194015
193441
192743
191891
190848
189561
187962
185959
183425
180302
195753
195862
195949
195940
195845
195689
195480
195217
194894
194499
194019
193437
192730
191868
190812
189510
187892
185864
183297
180137
195715
195843
195937
195922
195821
195660
195448
195183
194857
194460
193977
193391
192678
191809
190744
189429
187794
185744
183147
179952
195689
195824
195923
195910
195808
195648
195437
195172
194845
194447
193961
193371
192654
191778
190703
189376
187725
185653
183028
179802
195671
195808
195912
195901
195798
195637
195425
195159
194831
194430
193941
193348
192626
191744
190662
189325
187661
185573
182926
179673
195659
195798
195904
195894
195792
195630
195417
195150
194822
194419
193930
193334
192610
191724
190637
189293
187621
185520
182858
179588
195654
195793
195900
195891
195789
195626
195413
195146
194817
194414
193923
193327
192600
191713
190623
189276
187599
185493
182823
179543
195654
195793
195900
195891
195789
195626
195413
195146
194817
194414
193923
193327
192600
191713
190623
189276
187599
185493
182823
179543
195659
195798
195904
195894
195792
195630
195417
195150
194822
194419
193930
193334
192610
191724
190637
189293
187621
185520
182858
179588
195671
195808
195912
195901
195798
195637
195425
195159
194831
194429
193941
193348
192626
191744
190662
189325
187661
185572
182925
179673
195689
195824
195923
195910
195808
195648
195437
195172
194845
194446
193961
193371
192654
191778
190703
189376
187725
185653
183028
179802
195715
195843
195936
195922
195821
195660
195448
195183
194857
194460
193977
193391
192678
191809
190744
189429
187794
185743
183146
179952
195753
195861
195949
195940
195845
195689
195480
195217
194894
194499
194019
193437
192730
191868
190812
189510
187892
185863
183297
180137
195825
195877
195945
195929
195827
195665
195456
195197
194878
194488
194015
193441
192743
191891
190848
189561
187962
185959
183425
180301
195903
195974
196092
196089
195977
195803
195582
195311
194983
194586
194108
193530
192831
191980
190941
189663
188077
186092
183587
180493
195189
195516
195747
195808
195757
195635
195455
195216
194912
194536
194075
193512
192826
191989
190964
189701
188133
186172
183698
180630
196592
196538
196416
196261
196088
195890
195657
195379
195047
194649
194172
193598
192904
192063
191036
189775
188214
186264
183810
180756
196680
196549
196381
196216
196052
195875
195669
195424
195131
194778
194352
193840
193221
192473
191567
190467
189128
187497
185514
183143
195249
195533
195724
195776
195737
195637
195485
195279
195014
194681
194270
193768
193156
192412
191508
190406
189063
187422
185423
183039
195930
195983
196055
196046
195954
195807
195616
195379
195088
194735
194307
193789
193163
192405
191486
190369
189007
187343
185313
182902
196240
196049
195974
195924
195832
195692
195510
195282
194999
194652
194228
193712
193086
192326
191401
190274
188898
187214
185156
182713
196126
196018
195963
195922
195842
195710
195530
195299
195012
194659
194228
193704
193068
192297
191359
190216
188820
187112
185022
182544
196051
196003
195965
195915
195824
195687
195502
195268
194978
194622
194187
193659
193018
192239
191291
190136
188723
186993
184875
182365
196012
195985
195959
195907
195812
195674
195489
195255
194964
194606
194168
193635
192988
192202
191245
190077
188647
186897
184753
182213
195988
195968
195950
195900
195803
195662
195477
195241
194948
194588
194147
193611
192959
192167
191201
190023
188581
186814
184649
182086
195973
195956
195943
195895
195798
195655
195469
195232
194939
194577
194134
193596
192941
192144
191174
189989
188538
186759
184579
181999
195966
195950
195939
195892
195795
195652
195464
195228
194933
194571
194127
193587
192931
192132
191159
189970
188515
186730
184543
181955
195966
195950
195939
195892
195795
195652
195464
195228
194933
194571
194127
193587
192931
192132
191159
189970
188515
186730
184543
181954
195973
195956
195943
195895
195798
195655
195469
195232
194938
194577
194134
193595
192941
192144
191174
189989
188538
186759
184579
181999
195988
195968
195950
195900
195803
195662
195477
195241
194948
194588
194147
193611
192959
192166
191201
190023
188581
186814
184649
182086
196012
195985
195959
195907
195812
195674
195489
195255
194964
194606
194168
193635
192988
192202
191245
190076
188647
186897
184752
182213
196051
196003
195965
195915
195824
195687
195502
195268
194978
194622
194187
193659
193017
192239
191291
190135
188723
186992
184874
182364
196126
196018
195963
195922
195842
195710
195530
195299
195012
194658
194227
193704
193068
192297
191359
190216
188820
187112
185022
182544
196240
196049
195974
195924
195832
195692
195510
195282
194999
194652
194228
193712
193086
192326
191401
190274
188898
187214
185156
182712
195930
195983
196055
196046
195954
195807
195616
195379
195088
194735
194306
193789
193162
192405
191486
190369
189006
187343
185313
182901
195249
195533
195724
195776
195737
195637
195485
195279
195014
194681
194270
193768
193156
192412
191507
190406
189062
187422
185422
183039
196680
196549
196381
196216
196052
195875
195669
195424
195131
194778
194352
193839
193221
192473
191567
190467
189128
187497
185513
183143
196782
196648
196496
196361
196228
196077
195898
195681
195420
195106
194729
194277
193736
193088
192311
191382
190273
188954
187398
185600
195341
195634
195840
195915
195901
195827
195702
195524
195292
194999
194638
194198
193666
193023
192250
191322
190210
188885
187317
185506
195985
196095
196191
196198
196127
196001
195833
195622
195362
195048
194669
194213
193667
193011
192225
191283
190155
188809
187215
185377
196258
196150
196100
196067
196000
195886
195728
195526
195275
194967
194592
194139
193592
192935
192144
191193
190052
188688
187069
185201
196451
196246
196138
196090
196024
195911
195751
195544
195287
194972
194590
194128
193573
192904
192100
191134
189975
188588
186941
185039
196336
196216
196127
196072
195999
195884
195721
195512
195253
194935
194549
194084
193522
192847
192033
191055
189880
188473
186800
184869
196264
196199
196133
196073
195993
195873
195710
195500
195238
194917
194528
194058
193490
192807
191984
190993
189803
188377
186680
184723
196229
196183
196130
196070
195985
195862
195696
195485
195221
194898
194506
194031
193459
192769
191939
190938
189735
188294
186577
184599
196209
196170
196125
196067
195980
195855
195688
195475
195211
194886
194492
194015
193439
192745
191909
190902
189690
188238
186507
184514
196199
196163
196122
196065
195977
195851
195683
195470
195205
194880
194484
194006
193428
192732
191893
190882
189666
188208
186471
184470
196199
196163
196122
196065
195977
195851
195683
195470
195205
194880
194484
194006
193428
192732
191893
190882
189666
188208
186471
184470
196209
196170
196125
196067
195980
195855
195688
195475
195211
194886
194492
194015
193439
192745
191909
190902
189690
188237
186507
184514
196228
196183
196130
196070
195985
195862
195696
195485
195221
194898
194506
194031
193459
192769
191938
190938
189735
188294
186577
184599
196264
196199
196133
196073
195993
195873
195710
195499
195238
194917
194528
194058
193490
192807
191984
190993
189803
188377
186680
184723
196336
196216
196127
196072
195999
195884
195721
195512
195253
194935
194549
194084
193522
192846
192033
191055
189880
188473
186800
184869
196451
196246
196138
196090
196024
195911
195751
195544
195287
194972
194590
194128
193572
192904
192100
191134
189975
188588
186940
185039
196258
196150
196100
196067
196000
195886
195728
195526
195275
194967
194592
194139
193592
192935
192143
191193
190052
188688
187069
185201
195985
196095
196191
196198
196126
196001
195833
195621
195362
195048
194669
194213
193667
193011
192225
191283
190154
188808
187215
185376
195341
195634
195840
195915
195901
195827
195701
195524
195292
194999
194638
194198
193666
193023
192250
191322
190210
188884
187316
185505
196782
196648
196496
196361
196228
196077
195898
195681
195420
195106
194729
194277
193736
193087
192311
191382
190273
188953
187397
185599
196902
196770
196622
196496
196374
196240
196082
195895
195672
195406
195089
194713
194265
193733
193103
192359
191485
190466
189297
187984
195456
195755
195968
196051
196050
195994
195891
195744
195551
195308
195008
194643
194204
193678
193051
192308
191432
190409
189230
187905
196090
196222
196330
196342
196280
196171
196027
195847
195627
195362
195044
194665
194212
193673
193034
192277
191386
190346
189145
187794
196331
196285
196257
196226
196164
196065
195931
195760
195549
195290
194977
194600
194148
193608
192965
192201
191299
190243
189020
187643
196490
196370
196287
196242
196185
196091
195956
195781
195564
195300
194980
194595
194134
193584
192929
192152
191233
190157
188908
187500
196636
196447
196319
196246
196174
196072
195932
195753
195534
195266
194943
194555
194089
193533
192869
192081
191149
190055
188784
187350
196529
196417
196313
196238
196162
196058
195918
195739
195518
195248
194922
194529
194058
193494
192822
192023
191077
189965
188674
187216
196464
196401
196320
196243
196158
196049
195906
195725
195502
195229
194899
194502
194026
193457
192777
191969
191012
189886
188578
187102
196434
196389
196320
196243
196154
196042
195897
195715
195491
195216
194884
194485
194006
193432
192747
191932
190966
189831
188511
187022
196422
196381
196318
196243
196152
196038
195893
195710
195485
195210
194877
194476
193994
193418
192731
191912
190943
189802
188475
186980
196422
196381
196318
196243
196152
196038
195893
195710
195485
195210
194877
194476
193994
193418
192731
191912
190943
189802
188475
186980
196434
196389
196320
196243
196154
196042
195897
195715
195490
195216
194884
194485
194005
193432
192747
191932
190966
189831
188511
187022
196464
196401
196320
196243
196158
196049
195906
195725
195502
195229
194899
194502
194026
193457
192777
191969
191011
189886
188578
187102
196529
196417
196313
196238
196162
196058
195918
195739
195518
195248
194922
194529
194058
193494
192822
192022
191076
189965
188674
187216
196636
196447
196319
196246
196174
196072
195932
195753
195533
195266
194943
194554
194089
193532
192869
192081
191149
190054
188784
187349
196490
196370
196287
196242
196185
196091
195956
195781
195564
195300
194980
194595
194134
193584
192929
192152
191233
190156
188908
187500
196331
196285
196257
196226
196164
196065
195931
195760
195549
195290
194977
194600
194148
193608
192964
192201
191299
190243
189020
187642
196090
196222
196330
196342
196280
196171
196027
195847
195627
195362
195044
194665
194212
193673
193034
192277
191386
190345
189144
187793
195456
195755
195968
196051
196050
195993
195891
195744
195551
195308
195008
194643
194204
193678
193051
192307
191431
190408
189229
187904
196902
196770
196622
196496
196374
196239
196082
195895
195672
195406
195089
194713
194265
193733
193103
192359
191484
190466
189296
187984
197040
196911
196771
196658
196555
196445
196318
196169
195991
195780
195530
195234
194884
194471
193988
193425
192775
192032
191201
190294
195592
195896
196118
196214
196231
196198
196126
196017
195869
195680
195447
195163
194822
194416
193937
193376
192725
191979
191141
190225
196223
196363
196484
196509
196463
196378
196263
196120
195946
195736
195484
195185
194832
194414
193923
193350
192686
191925
191068
190129
196455
196431
196421
196400
196351
196274
196170
196037
195871
195667
195421
195126
194773
194355
193861
193283
192610
191837
190963
190001
196585
196522
196467
196429
196382
196307
196201
196063
195891
195682
195429
195126
194765
194338
193834
193244
192557
191766
190871
189882
196701
196589
196491
196428
196369
196288
196179
196038
195864
195652
195397
195091
194727
194294
193784
193185
192486
191681
190767
189756
196824
196653
196522
196438
196367
196281
196169
196027
195851
195637
195378
195069
194699
194261
193743
193134
192424
191605
190674
189643
196729
196626
196518
196435
196359
196269
196156
196012
195834
195618
195356
195043
194670
194226
193702
193086
192366
191535
190590
189544
196673
196614
196527
196441
196358
196264
196148
196003
195824
195605
195342
195026
194650
194202
193673
193051
192325
191486
190530
189474
196653
196608
196529
196443
196357
196260
196143
195998
195818
195598
195334
195017
194638
194189
193658
193032
192302
191459
190498
189436
196653
196608
196529
196443
196357
196260
196143
195998
195818
195598
195334
195017
194638
194189
193658
193032
192302
191459
190498
189436
196673
196614
196527
196441
196358
196264
196148
196003
195824
195605
195342
195026
194650
194202
193673
193051
192325
191485
190530
189473
196729
196626
196518
196435
196359
196269
196156
196012
195834
195618
195356
195043
194670
194226
193702
193085
192366
191535
190590
189544
196824
196653
196522
196438
196367
196281
196169
196027
195851
195637
195378
195069
194699
194261
193743
193134
192424
191605
190674
189643
196701
196589
196491
196428
196369
196288
196179
196038
195864
195652
195397
195091
194727
194294
193784
193185
192486
191681
190767
189756
196585
196522
196467
196429
196382
196307
196201
196063
195891
195682
195429
195126
194765
194338
193834
193243
192556
191766
190870
189882
196455
196431
196421
196400
196351
196274
196170
196036
195870
195667
195421
195126
194773
194355
193861
193282
192610
191836
190962
190000
196223
196363
196484
196509
196463
196377
196263
196120
195946
195735
195484
195185
194831
194414
193923
193350
192685
191925
191068
190129
195592
195896
196118
196214
196231
196198
196126
196017
195869
195680
195446
195163
194822
194416
193937
193375
192724
191979
191141
190224
197040
196911
196771
196658
196555
196445
196318
196169
195991
195780
195530
195234
194883
194471
193988
193425
192774
192032
191200
190294
197194
197068
196937
196837
196753
196666
196569
196457
196325
196170
195988
195775
195525
195234
194897
194511
194072
193583
193049
192487
195745
196052
196284
196394
196429
196420
196378
196306
196204
196072
195907
195707
195466
195182
194850
194466
194028
193536
192998
192428
196375
196520
196653
196691
196663
196601
196516
196411
196283
196130
195948
195733
195480
195185
194842
194447
193997
193492
192938
192349
196603
196589
196594
196587
196555
196500
196426
196331
196212
196066
195890
195679
195428
195134
194789
194390
193934
193419
192852
192244
196725
196683
196648
196623
196589
196536
196460
196361
196237
196085
195902
195685
195427
195125
194772
194363
193894
193366
192781
192151
196816
196755
196686
196633
196585
196524
196444
196342
196215
196062
195877
195658
195397
195091
194733
194317
193840
193300
192701
192054
196913
196811
196710
196639
196581
196518
196436
196333
196206
196051
195864
195641
195377
195066
194702
194280
193794
193243
192630
191967
197026
196869
196739
196651
196582
196512
196427
196322
196192
196035
195845
195620
195353
195038
194669
194241
193747
193188
192565
191889
196945
196848
196738
196649
196577
196504
196418
196312
196182
196023
195832
195605
195335
195017
194645
194212
193714
193148
192517
191833
196905
196843
196747
196656
196578
196502
196415
196308
196177
196017
195825
195596
195325
195006
194631
194196
193695
193126
192491
191803
196905
196843
196747
196656
196578
196502
196415
196308
196177
196017
195825
195596
195325
195006
194631
194196
193695
193126
192491
191803
196945
196848
196738
196649
196577
196504
196418
196312
196182
196023
195832
195605
195335
195017
194645
194212
193714
193148
192517
191833
197026
196869
196739
196651
196582
196512
196427
196322
196192
196035
195845
195620
195353
195038
194669
194240
193747
193188
192565
191889
196913
196811
196710
196639
196581
196518
196436
196333
196206
196051
195864
195641
195377
195066
194702
194279
193793
193242
192630
191966
196816
196755
196686
196633
196585
196524
196444
196342
196215
196062
195877
195658
195397
195091
194733
194317
193840
193300
192701
192053
196725
196683
196648
196623
196589
196536
196460
196361
196237
196085
195902
195685
195427
195125
194772
194363
193894
193365
192781
192151
196603
196589
196594
196587
196554
196500
196426
196331
196212
196066
195890
195678
195428
195133
194789
194390
193933
193419
192851
192243
196375
196520
196653
196691
196663
196601
196516
196411
196283
196130
195948
195732
195480
195185
194842
194447
193997
193492
192938
192348
195745
196052
196284
196394
196429
196420
196378
196306
196204
196072
195907
195706
195466
195182
194850
194466
194027
193535
192997
192427
197194
197068
196937
196837
196752
196666
196569
196457
196325
196170
195988
195775
195525
195234
194897
194511
194072
193582
193049
192487
197360
197238
197114
197028
196963
196901
196836
196763
196680
196583
196472
196342
196193
196022
195828
195609
195367
195106
194833
194564
195910
196221
196461
196585
196639
196655
196645
196612
196559
196485
196391
196275
196136
195972
195783
195567
195326
195063
194788
194512
196540
196690
196832
196885
196876
196837
196784
196719
196639
196545
196433
196303
196152
195978
195778
195553
195302
195028
194740
194449
196768
196759
196775
196783
196769
196739
196696
196641
196570
196484
196379
196253
196105
195932
195733
195505
195250
194969
194671
194366
196887
196854
196834
196824
196808
196778
196733
196674
196599
196507
196396
196265
196111
195931
195725
195489
195224
194933
194621
194299
196971
196930
196880
196840
196807
196769
196721
196659
196582
196489
196377
196245
196089
195907
195697
195457
195187
194887
194565
194230
197047
196991
196916
196856
196811
196769
196719
196656
196579
196484
196371
196236
196078
195893
195679
195434
195157
194850
194518
194172
197138
197042
196939
196863
196810
196763
196712
196648
196569
196473
196358
196222
196061
195874
195657
195408
195126
194814
194475
194120
197251
197100
196966
196874
196812
196761
196707
196642
196562
196465
196349
196211
196049
195860
195641
195389
195104
194788
194444
194082
197193
197085
196962
196871
196809
196758
196703
196637
196557
196460
196343
196205
196042
195852
195631
195378
195092
194773
194427
194062
197193
197085
196962
196871
196809
196758
196703
196637
196557
196460
196343
196205
196042
195852
195631
195378
195092
194773
194427
194062
197251
197100
196966
196874
196812
196761
196707
196642
196562
196465
196349
196211
196049
195860
195641
195389
195104
194788
194444
194082
197138
197042
196939
196863
196810
196763
196712
196648
196569
196473
196358
196222
196061
195874
195657
195408
195126
194814
194475
194119
197047
196991
196916
196856
196811
196769
196719
196656
196579
196484
196371
196236
196078
195893
195679
195434
195157
194850
194518
194171
196971
196930
196880
196840
196807
196769
196721
196659
196582
196489
196377
196245
196089
195907
195697
195457
195186
194887
194565
194230
196887
196854
196834
196824
196807
196778
196733
196674
196599
196507
196396
196265
196111
195931
195724
195489
195224
194932
194620
194299
196767
196758
196775
196783
196769
196739
196696
196641
196570
196484
196379
196253
196105
195932
195733
195505
195249
194969
194670
194365
196540
196690
196832
196885
196876
196837
196784
196719
196639
196545
196433
196303
196152
195977
195778
195553
195301
195028
194739
194448
195910
196221
196461
196585
196639
196655
196645
196612
196559
196485
196391
196275
196136
195972
195782
195566
195325
195063
194787
194512
197360
197238
197114
197028
196963
196901
196836
196763
196679
196583
196472
196342
196193
196022
195828
195609
195367
195106
194833
194564
197535
197415
197300
197227
197181
197144
197111
197077
197042
197004
196963
196917
196866
196811
196752
196691
196631
196575
196533
196516
196084
196398
196646
196784
196858
196898
196920
196927
196922
196907
196883
196850
196810
196763
196709
196652
196593
196537
196493
196471
196715
196868
197018
197085
197095
197082
197061
197035
197004
196968
196927
196881
196829
196771
196709
196643
196576
196511
196457
196423
196943
196937
196963
196986
196991
196985
196974
196959
196937
196910
196876
196835
196787
196732
196671
196605
196535
196466
196405
196361
197062
197033
197024
197029
197031
197026
197014
196995
196969
196937
196898
196852
196799
196739
196672
196600
196523
196447
196376
196320
197145
197111
197074
197049
197033
197020
197004
196983
196957
196924
196885
196838
196785
196724
196656
196582
196502
196421
196344
196280
197217
197176
197117
197069
197041
197023
197006
196985
196958
196925
196885
196838
196783
196720
196650
196573
196490
196404
196322
196250
197292
197234
197150
197085
197046
197024
197005
196982
196954
196920
196879
196831
196776
196712
196641
196562
196476
196388
196302
196224
197391
197284
197167
197089
197047
197023
197003
196980
196951
196917
196875
196827
196771
196707
196635
196555
196468
196378
196289
196207
197530
197341
197183
197093
197048
197022
197001
196977
196949
196914
196873
196824
196768
196704
196631
196551
196463
196372
196282
196198
197530
197341
197183
197093
197048
197022
197001
196977
196949
196914
196873
196824
196768
196704
196631
196551
196463
196372
196282
196198
197391
197284
197167
197089
197047
197023
197003
196980
196951
196917
196875
196827
196771
196707
196635
196555
196468
196378
196289
196207
197292
197233
197150
197085
197046
197024
197005
196982
196954
196920
196879
196831
196776
196712
196641
196562
196476
196388
196302
196224
197217
197176
197117
197069
197041
197023
197006
196985
196958
196925
196885
196837
196783
196720
196650
196573
196490
196404
196322
196250
197145
197111
197074
197049
197033
197020
197004
196983
196956
196924
196884
196838
196785
196724
196656
196581
196502
196420
196344
196279
197062
197033
197024
197029
197031
197026
197014
196995
196969
196937
196897
196852
196799
196739
196672
196599
196523
196446
196376
196320
196943
196937
196963
196985
196991
196985
196974
196959
196937
196910
196876
196835
196787
196732
196671
196604
196535
196466
196405
196361
196715
196867
197018
197085
197095
197082
197061
197035
197004
196968
196927
196880
196829
196771
196709
196643
196576
196511
196456
196422
196084
196398
196646
196784
196857
196898
196920
196927
196922
196907
196883
196850
196810
196762
196709
196651
196592
196537
196492
196470
197535
197415
197300
197227
197181
197144
197111
197077
197042
197004
196962
196916
196866
196811
196752
196691
196630
196575
196532
196515
197714
197597
197489
197429
197401
197390
197388
197394
197406
197426
197452
197487
197532
197588
197657
197743
197850
197980
198141
198342
196262
196579
196835
196986
197078
197144
197198
197244
197287
197329
197373
197422
197477
197541
197616
197707
197815
197947
198107
198305
196895
197050
197208
197288
197316
197328
197339
197352
197369
197391
197419
197454
197498
197553
197621
197704
197805
197930
198082
198272
197124
197121
197154
197189
197213
197233
197254
197278
197305
197336
197371
197412
197461
197519
197589
197673
197775
197898
198047
198231
197245
197219
197217
197234
197256
197276
197296
197317
197340
197366
197397
197434
197479
197533
197599
197679
197777
197895
198039
198215
197331
197299
197268
197256
197260
197273
197289
197309
197331
197358
197390
197428
197473
197528
197595
197675
197771
197888
198029
198202
197405
197367
197314
197279
197270
197279
197295
197314
197337
197364
197396
197434
197480
197534
197600
197680
197776
197891
198030
198198
197483
197427
197350
197298
197279
197283
197297
197316
197339
197365
197397
197435
197481
197536
197603
197683
197778
197893
198031
198197
197586
197481
197371
197306
197283
197286
197299
197318
197341
197368
197400
197438
197485
197540
197607
197687
197783
197898
198035
198199
197728
197540
197390
197313
197287
197288
197301
197319
197342
197369