/*--------------------------------*- C++ -*----------------------------------*\
  =========                 |
  \\      /  F ield         | OpenFOAM: The Open Source CFD Toolbox
   \\    /   O peration     | Website:  https://openfoam.org
    \\  /    A nd           | Version:  10
     \\/     M anipulation  |
\*---------------------------------------------------------------------------*/
FoamFile
{
    format      ascii;
    class       surfaceScalarField;
    location    "200";
    object      phi;
}
// * * * * * * * * * * * * * * * * * * * * * * * * * * * * * * * * * * * * * //

dimensions      [1 0 -1 0 0 0 0];

internalField   nonuniform List<scalar> 
324400
(
0.00100249
-3.57145e-06
-4.1618e-06
0.00100301
3.41655e-07
-8.62868e-07
0.00100312
8.51767e-07
-9.54931e-07
0.00100311
1.21364e-06
-1.21153e-06
0.00100313
1.53021e-06
-1.54898e-06
0.00100346
1.73175e-06
-2.06087e-06
0.00100439
1.83003e-06
-2.76097e-06
0.00100616
1.8658e-06
-3.63668e-06
0.00100899
1.86774e-06
-4.69236e-06
0.0010131
1.85028e-06
-5.95729e-06
0.00101876
1.82107e-06
-7.48026e-06
0.0010263
1.78551e-06
-9.32955e-06
0.00103615
1.74878e-06
-1.16006e-05
0.00104887
1.71678e-06
-1.44317e-05
0.00106521
1.69718e-06
-1.80345e-05
0.00108626
1.70112e-06
-2.27544e-05
0.00111372
1.74626e-06
-2.92018e-05
0.00115041
1.86273e-06
-3.85561e-05
0.00120164
2.13173e-06
-5.33656e-05
2.38886e-06
-7.91381e-05
0.00127839
0.000996195
-2.12148e-06
-1.07085e-05
0.00100166
6.27985e-07
-5.75201e-06
0.00100566
1.63477e-06
-4.78711e-06
0.00100955
1.94007e-06
-4.61131e-06
0.0010136
2.16539e-06
-4.68308e-06
0.00101797
2.34603e-06
-4.98211e-06
0.00102284
2.46761e-06
-5.50673e-06
0.00102839
2.54911e-06
-6.24069e-06
0.00103483
2.61353e-06
-7.18311e-06
0.00104236
2.67453e-06
-8.35456e-06
0.00105124
2.74008e-06
-9.79558e-06
0.00106178
2.81745e-06
-1.15679e-05
0.00107437
2.91548e-06
-1.37603e-05
0.00108955
3.04569e-06
-1.6503e-05
0.00110802
3.2238e-06
-1.99961e-05
0.00113081
3.47197e-06
-2.45672e-05
0.00115953
3.82231e-06
-3.07948e-05
0.00119687
4.32312e-06
-3.9799e-05
0.001248
5.06052e-06
-5.4056e-05
6.03141e-06
-7.87778e-05
0.00132314
0.000996496
2.19655e-08
-1.0773e-05
0.0010033
7.09961e-07
-6.88636e-06
0.00100958
1.29837e-06
-5.94065e-06
0.00101561
1.55295e-06
-5.64385e-06
0.00102167
1.7012e-06
-5.59492e-06
0.00102793
1.84131e-06
-5.75201e-06
0.00103454
1.9766e-06
-6.12208e-06
0.00104169
2.10715e-06
-6.70558e-06
0.00104957
2.24269e-06
-7.50913e-06
0.0010584
2.39402e-06
-8.55474e-06
0.00106845
2.57055e-06
-9.88161e-06
0.00108004
2.78224e-06
-1.15484e-05
0.00109355
3.04184e-06
-1.36405e-05
0.00110952
3.36648e-06
-1.62842e-05
0.00112864
3.77935e-06
-1.96743e-05
0.00115193
4.31222e-06
-2.41298e-05
0.00118096
5.00933e-06
-3.02174e-05
0.00121839
5.93376e-06
-3.90365e-05
0.00126931
7.18512e-06
-5.30455e-05
8.81717e-06
-7.74005e-05
0.00134392
0.000998234
2.84883e-07
-1.067e-05
0.00100548
6.89011e-07
-7.22458e-06
0.00101219
1.17629e-06
-6.59037e-06
0.00101868
1.57609e-06
-6.50625e-06
0.00102515
1.89012e-06
-6.66532e-06
0.00103184
2.16656e-06
-7.01219e-06
0.00103892
2.42357e-06
-7.53195e-06
0.00104659
2.66711e-06
-8.22117e-06
0.00105501
2.90685e-06
-9.08986e-06
0.00106442
3.15581e-06
-1.0164e-05
0.00107504
3.42791e-06
-1.14864e-05
0.00108721
3.73821e-06
-1.31188e-05
0.0011013
4.1046e-06
-1.5149e-05
0.00111782
4.54953e-06
-1.77042e-05
0.00113747
5.10189e-06
-2.09785e-05
0.00116128
5.79945e-06
-2.52887e-05
0.00119079
6.69215e-06
-3.11969e-05
0.00122867
7.84594e-06
-3.97942e-05
0.00128004
9.34861e-06
-5.35302e-05
1.12452e-05
-7.75534e-05
0.00135517
0.000998173
3.28973e-07
-1.04811e-05
0.00100519
6.9095e-07
-7.02366e-06
0.00101171
1.0611e-06
-6.40073e-06
0.00101815
1.38536e-06
-6.24682e-06
0.00102469
1.6501e-06
-6.30613e-06
0.00103154
1.87918e-06
-6.55571e-06
0.00103885
2.09393e-06
-6.98342e-06
0.0010468
2.3067e-06
-7.58526e-06
0.00105555
2.5282e-06
-8.37266e-06
0.00106531
2.7706e-06
-9.37256e-06
0.00107632
3.04739e-06
-1.06271e-05
0.00108888
3.37368e-06
-1.21965e-05
0.00110338
3.76742e-06
-1.41659e-05
0.00112034
4.25104e-06
-1.66596e-05
0.00114046
4.85317e-06
-1.98684e-05
0.00116475
5.61074e-06
-2.41055e-05
0.0011948
6.57133e-06
-2.99288e-05
0.00123328
7.79563e-06
-3.84243e-05
0.00128531
9.35986e-06
-5.20362e-05
1.13199e-05
-7.59105e-05
0.00136114
0.000998067
2.87784e-07
-1.03924e-05
0.00100509
5.92281e-07
-6.92386e-06
0.00101163
8.75689e-07
-6.35261e-06
0.00101813
1.13126e-06
-6.24382e-06
0.00102476
1.36115e-06
-6.34009e-06
0.00103169
1.57722e-06
-6.63273e-06
0.0010391
1.79097e-06
-7.10953e-06
0.00104716
2.01032e-06
-7.76008e-06
0.00105604
2.24249e-06
-8.59084e-06
0.00106594
2.49633e-06
-9.62558e-06
0.00107711
2.78266e-06
-1.09041e-05
0.00108985
3.11457e-06
-1.24847e-05
0.00110456
3.50814e-06
-1.44508e-05
0.00112176
3.98361e-06
-1.69251e-05
0.00114214
4.56663e-06
-2.00969e-05
0.00116674
5.28972e-06
-2.42771e-05
0.00119714
6.19357e-06
-3.00214e-05
0.00123602
7.3277e-06
-3.8412e-05
0.00128852
8.74737e-06
-5.18885e-05
1.04965e-05
-7.56051e-05
0.00136495
0.000997957
2.23046e-07
-1.03485e-05
0.00100495
4.59044e-07
-6.86133e-06
0.00101146
6.73155e-07
-6.30247e-06
0.00101792
8.65797e-07
-6.20192e-06
0.00102453
1.04363e-06
-6.28802e-06
0.00103145
1.21461e-06
-6.55817e-06
0.00103886
1.38522e-06
-7.00634e-06
0.00104694
1.5609e-06
-7.62405e-06
0.00105585
1.74765e-06
-8.41855e-06
0.00106581
1.95302e-06
-9.41462e-06
0.00107706
2.18631e-06
-1.0653e-05
0.00108991
2.4586e-06
-1.21924e-05
0.00110475
2.78337e-06
-1.41163e-05
0.0011221
3.17724e-06
-1.65468e-05
0.00114268
3.6609e-06
-1.96723e-05
0.00116752
4.26005e-06
-2.38026e-05
0.0011982
5.00604e-06
-2.94913e-05
0.00123741
5.93595e-06
-3.78181e-05
0.00129029
7.08893e-06
-5.12185e-05
8.50769e-06
-7.4854e-05
0.00136713
0.000997871
1.50636e-07
-1.03251e-05
0.00100484
3.10668e-07
-6.82408e-06
0.00101133
4.55161e-07
-6.2695e-06
0.00101779
5.84339e-07
-6.17834e-06
0.0010244
7.04365e-07
-6.26847e-06
0.00103133
8.21814e-07
-6.53823e-06
0.00103876
9.41266e-07
-6.98564e-06
0.00104686
1.06627e-06
-7.60382e-06
0.00105581
1.20086e-06
-8.39965e-06
0.00106581
1.3502e-06
-9.39709e-06
0.00107711
1.52065e-06
-1.0636e-05
0.00109002
1.71979e-06
-1.21743e-05
0.00110494
1.95688e-06
-1.40942e-05
0.0011224
2.24331e-06
-1.65172e-05
0.0011431
2.59322e-06
-1.96302e-05
0.00116807
3.02398e-06
-2.37419e-05
0.00119893
3.55646e-06
-2.94045e-05
0.00123835
4.21462e-06
-3.76955e-05
0.00129146
5.02112e-06
-5.10474e-05
6.00892e-06
-7.46324e-05
0.0013686
0.000997814
7.57586e-08
-1.03129e-05
0.00100477
1.56475e-07
-6.80329e-06
0.00101125
2.29407e-07
-6.24956e-06
0.0010177
2.94469e-07
-6.16359e-06
0.00102431
3.55014e-07
-6.25625e-06
0.00103124
4.14738e-07
-6.52413e-06
0.00103867
4.7603e-07
-6.96669e-06
0.00104677
5.40528e-07
-7.5782e-06
0.00105573
6.10128e-07
-8.36568e-06
0.00106575
6.87392e-07
-9.35294e-06
0.00107707
7.75563e-07
-1.05799e-05
0.00109002
8.78569e-07
-1.21043e-05
0.00110498
1.0012e-06
-1.40087e-05
0.00112249
1.14933e-06
-1.64145e-05
0.00114327
1.33023e-06
-1.95084e-05
0.00116834
1.55271e-06
-2.35989e-05
0.00119931
1.82721e-06
-2.92377e-05
0.00123886
2.16558e-06
-3.75014e-05
0.00129212
2.57775e-06
-5.08205e-05
3.08871e-06
-7.43772e-05
0.00136942
0.000997786
4.84289e-11
-1.03075e-05
0.00100474
1.03015e-10
-6.79374e-06
0.00101121
1.59732e-10
-6.23996e-06
0.00101766
2.2057e-10
-6.15633e-06
0.00102426
2.87312e-10
-6.25061e-06
0.00103119
3.61543e-10
-6.51824e-06
0.00103863
4.45177e-10
-6.95935e-06
0.00104674
5.40711e-10
-7.56901e-06
0.0010557
6.5102e-10
-8.35453e-06
0.00106573
7.79107e-10
-9.33969e-06
0.00107707
9.28139e-10
-1.05643e-05
0.00109003
1.10168e-09
-1.20861e-05
0.00110502
1.30396e-09
-1.39875e-05
0.00112256
1.53999e-09
-1.63895e-05
0.00114337
1.81551e-09
-1.94788e-05
0.00116848
2.13677e-09
-2.35635e-05
0.0011995
2.51009e-09
-2.91948e-05
0.00123912
2.94125e-09
-3.74485e-05
0.00129245
3.43059e-09
-5.07542e-05
4.00076e-09
-7.43039e-05
0.00136984
0.000997786
-7.56621e-08
-1.03075e-05
0.00100474
-1.56269e-07
-6.79373e-06
0.00101121
-2.2909e-07
-6.23996e-06
0.00101766
-2.94033e-07
-6.15633e-06
0.00102426
-3.54448e-07
-6.25061e-06
0.00103119
-4.14026e-07
-6.51824e-06
0.00103863
-4.75152e-07
-6.95935e-06
0.00104674
-5.3946e-07
-7.56901e-06
0.0010557
-6.08841e-07
-8.35453e-06
0.00106573
-6.85851e-07
-9.33968e-06
0.00107707
-7.73726e-07
-1.05643e-05
0.00109003
-8.76389e-07
-1.20861e-05
0.00110502
-9.98615e-07
-1.39875e-05
0.00112256
-1.14628e-06
-1.63895e-05
0.00114337
-1.32663e-06
-1.94788e-05
0.00116848
-1.54848e-06
-2.35635e-05
0.0011995
-1.82225e-06
-2.91947e-05
0.00123912
-2.15976e-06
-3.74485e-05
0.00129245
-2.57095e-06
-5.07542e-05
-3.08081e-06
-7.43039e-05
0.00136984
0.000997814
-1.50544e-07
-1.03129e-05
0.00100477
-3.10472e-07
-6.80329e-06
0.00101125
-4.54857e-07
-6.24955e-06
0.0010177
-5.83919e-07
-6.16358e-06
0.00102431
-7.03818e-07
-6.25625e-06
0.00103124
-8.21125e-07
-6.52412e-06
0.00103867
-9.40416e-07
-6.96668e-06
0.00104677
-1.06524e-06
-7.57819e-06
0.00105573
-1.19961e-06
-8.36567e-06
0.00106575
-1.34871e-06
-9.35293e-06
0.00107707
-1.51887e-06
-1.05799e-05
0.00109002
-1.71769e-06
-1.21043e-05
0.00110499
-1.95439e-06
-1.40087e-05
0.00112249
-2.24036e-06
-1.64144e-05
0.00114327
-2.58975e-06
-1.95084e-05
0.00116834
-3.0199e-06
-2.35989e-05
0.00119931
-3.55166e-06
-2.92377e-05
0.00123886
-4.20899e-06
-3.75013e-05
0.00129212
-5.01454e-06
-5.08204e-05
-6.00128e-06
-7.4377e-05
0.00136942
0.000997871
-2.22959e-07
-1.03251e-05
0.00100484
-4.58857e-07
-6.82408e-06
0.00101133
-6.72868e-07
-6.26949e-06
0.00101779
-8.65403e-07
-6.17834e-06
0.0010244
-1.04312e-06
-6.26846e-06
0.00103133
-1.21396e-06
-6.53823e-06
0.00103876
-1.38443e-06
-6.98563e-06
0.00104686
-1.55993e-06
-7.60381e-06
0.00105581
-1.74647e-06
-8.39964e-06
0.00106581
-1.95162e-06
-9.39707e-06
0.00107711
-2.18463e-06
-1.0636e-05
0.00109002
-2.45661e-06
-1.21742e-05
0.00110495
-2.78102e-06
-1.40942e-05
0.0011224
-3.17446e-06
-1.65172e-05
0.0011431
-3.65763e-06
-1.96302e-05
0.00116808
-4.25619e-06
-2.37419e-05
0.00119893
-5.00151e-06
-2.94044e-05
0.00123835
-5.93064e-06
-3.76954e-05
0.00129147
-7.08272e-06
-5.10472e-05
-8.50047e-06
-7.46322e-05
0.0013686
0.000997957
-2.87705e-07
-1.03485e-05
0.00100495
-5.92113e-07
-6.86133e-06
0.00101146
-8.75429e-07
-6.30247e-06
0.00101792
-1.1309e-06
-6.20191e-06
0.00102453
-1.36068e-06
-6.28801e-06
0.00103145
-1.57663e-06
-6.55816e-06
0.00103886
-1.79024e-06
-7.00633e-06
0.00104694
-2.00942e-06
-7.62403e-06
0.00105585
-2.24142e-06
-8.41853e-06
0.00106581
-2.49504e-06
-9.4146e-06
0.00107706
-2.78112e-06
-1.0653e-05
0.00108991
-3.11275e-06
-1.21924e-05
0.00110475
-3.50599e-06
-1.41162e-05
0.00112211
-3.98107e-06
-1.65468e-05
0.00114268
-4.56364e-06
-1.96722e-05
0.00116752
-5.28619e-06
-2.38025e-05
0.0011982
-6.18943e-06
-2.94912e-05
0.00123741
-7.32284e-06
-3.78179e-05
0.00129029
-8.74169e-06
-5.12182e-05
-1.04898e-05
-7.48536e-05
0.00136713
0.000998067
-3.28902e-07
-1.03924e-05
0.00100509
-6.90801e-07
-6.92386e-06
0.00101163
-1.06087e-06
-6.3526e-06
0.00101813
-1.38504e-06
-6.24381e-06
0.00102476
-1.64969e-06
-6.34008e-06
0.00103169
-1.87866e-06
-6.63272e-06
0.0010391
-2.09328e-06
-7.10951e-06
0.00104716
-2.30591e-06
-7.76006e-06
0.00105604
-2.52724e-06
-8.59081e-06
0.00106594
-2.76946e-06
-9.62555e-06
0.00107711
-3.04603e-06
-1.09041e-05
0.00108985
-3.37207e-06
-1.24847e-05
0.00110456
-3.76552e-06
-1.44507e-05
0.00112176
-4.2488e-06
-1.69251e-05
0.00114214
-4.85053e-06
-2.00968e-05
0.00116674
-5.60763e-06
-2.4277e-05
0.00119714
-6.56767e-06
-3.00212e-05
0.00123602
-7.79134e-06
-3.84118e-05
0.00128853
-9.35483e-06
-5.18881e-05
-1.1314e-05
-7.56047e-05
0.00136496
0.000998173
-2.84823e-07
-1.04811e-05
0.00100519
-6.88887e-07
-7.02366e-06
0.00101171
-1.1761e-06
-6.40072e-06
0.00101815
-1.57582e-06
-6.24681e-06
0.00102469
-1.88977e-06
-6.30612e-06
0.00103154
-2.16613e-06
-6.55569e-06
0.00103885
-2.42303e-06
-6.9834e-06
0.0010468
-2.66645e-06
-7.58522e-06
0.00105555
-2.90605e-06
-8.37262e-06
0.00106531
-3.15486e-06
-9.37251e-06
0.00107632
-3.42678e-06
-1.06271e-05
0.00108888
-3.73687e-06
-1.21964e-05
0.00110338
-4.10302e-06
-1.41658e-05
0.00112034
-4.54766e-06
-1.66595e-05
0.00114046
-5.09968e-06
-1.98683e-05
0.00116476
-5.79685e-06
-2.41053e-05
0.00119481
-6.6891e-06
-2.99285e-05
0.00123328
-7.84235e-06
-3.8424e-05
0.00128531
-9.34439e-06
-5.20358e-05
-1.12403e-05
-7.59099e-05
0.00136115
0.000998234
-2.19167e-08
-1.067e-05
0.00100548
-7.09863e-07
-7.22458e-06
0.00101219
-1.29823e-06
-6.59036e-06
0.00101868
-1.55275e-06
-6.50624e-06
0.00102515
-1.70094e-06
-6.66531e-06
0.00103184
-1.84097e-06
-7.01217e-06
0.00103893
-1.97618e-06
-7.53192e-06
0.00104659
-2.10663e-06
-8.22113e-06
0.00105501
-2.24206e-06
-9.08981e-06
0.00106442
-2.39328e-06
-1.01639e-05
0.00107505
-2.56966e-06
-1.14863e-05
0.00108721
-2.78119e-06
-1.31187e-05
0.0011013
-3.04061e-06
-1.51489e-05
0.00111782
-3.36502e-06
-1.77041e-05
0.00113748
-3.77764e-06
-2.09783e-05
0.00116128
-4.3102e-06
-2.52885e-05
0.00119079
-5.00695e-06
-3.11967e-05
0.00122868
-5.93096e-06
-3.97938e-05
0.00128005
-7.18183e-06
-5.35297e-05
-8.8133e-06
-7.75528e-05
0.00135517
0.000996496
2.12151e-06
-1.07729e-05
0.0010033
-6.27927e-07
-6.88636e-06
0.00100958
-1.63468e-06
-5.94064e-06
0.00101561
-1.93994e-06
-5.64384e-06
0.00102167
-2.16522e-06
-5.59489e-06
0.00102793
-2.34582e-06
-5.75197e-06
0.00103454
-2.46733e-06
-6.12203e-06
0.00104169
-2.54877e-06
-6.70553e-06
0.00104957
-2.61311e-06
-7.50907e-06
0.0010584
-2.67403e-06
-8.55467e-06
0.00106846
-2.73948e-06
-9.88153e-06
0.00108004
-2.81675e-06
-1.15483e-05
0.00109356
-2.91465e-06
-1.36404e-05
0.00110952
-3.04471e-06
-1.62841e-05
0.00112864
-3.22264e-06
-1.96741e-05
0.00115193
-3.4706e-06
-2.41296e-05
0.00118096
-3.8207e-06
-3.02171e-05
0.00121839
-4.32123e-06
-3.90361e-05
0.00126931
-5.05828e-06
-5.3045e-05
-6.02875e-06
-7.73998e-05
0.00134393
0.000996195
3.57144e-06
-1.07085e-05
0.00100166
-3.41679e-07
-5.75201e-06
0.00100566
-8.51765e-07
-4.78711e-06
0.00100955
-1.21362e-06
-4.6113e-06
0.0010136
-1.53016e-06
-4.68305e-06
0.00101797
-1.73169e-06
-4.98206e-06
0.00102284
-1.82995e-06
-5.50667e-06
0.00102839
-1.8657e-06
-6.24062e-06
0.00103483
-1.8676e-06
-7.18304e-06
0.00104236
-1.85012e-06
-8.35447e-06
0.00105124
-1.82087e-06
-9.79548e-06
0.00106178
-1.78526e-06
-1.15678e-05
0.00107437
-1.74848e-06
-1.37601e-05
0.00108955
-1.71641e-06
-1.65028e-05
0.00110802
-1.69673e-06
-1.9996e-05
0.00113082
-1.70058e-06
-2.45669e-05
0.00115954
-1.74561e-06
-3.07946e-05
0.00119688
-1.86195e-06
-3.97986e-05
0.00124801
-2.13077e-06
-5.40554e-05
-2.38764e-06
-7.87771e-05
0.00132314
0.00100249
-4.16179e-06
0.00100301
-8.62846e-07
0.00100312
-9.54904e-07
0.00100311
-1.21149e-06
0.00100313
-1.54892e-06
0.00100346
-2.0608e-06
0.00100439
-2.76088e-06
0.00100616
-3.63658e-06
0.00100899
-4.69225e-06
0.0010131
-5.95718e-06
0.00101876
-7.48014e-06
0.0010263
-9.32941e-06
0.00103615
-1.16004e-05
0.00104887
-1.44315e-05
0.00106521
-1.80343e-05
0.00108626
-2.27542e-05
0.00111372
-2.92015e-05
0.00115041
-3.85557e-05
0.00120165
-5.33651e-05
-7.91373e-05
0.0012784
0.000996278
-1.012e-05
-3.19644e-06
0.00100159
-4.53005e-06
-1.6399e-06
0.00100538
-2.91529e-06
-1.83818e-06
0.00100902
-2.05771e-06
-2.78877e-06
0.00101278
-1.39529e-06
-3.91169e-06
0.00101682
-8.86327e-07
-5.21336e-06
0.00102132
-5.04785e-07
-6.75567e-06
0.00102646
-2.06373e-07
-8.57539e-06
0.00103244
4.29547e-08
-1.07167e-05
0.00103947
2.6589e-07
-1.32458e-05
0.00104777
4.79711e-07
-1.62586e-05
0.00105763
6.97095e-07
-1.98872e-05
0.00106941
9.29088e-07
-2.43066e-05
0.00108355
1.18752e-06
-2.97608e-05
0.00110063
1.48677e-06
-3.66031e-05
0.0011214
1.84579e-06
-4.53689e-05
0.00114681
2.29111e-06
-5.69055e-05
0.001178
2.86256e-06
-7.26033e-05
0.00121587
3.60302e-06
-9.48342e-05
4.32156e-06
-0.000127156
0.00125956
0.00113138
-2.25729e-06
-3.29365e-06
0.0011247
-7.2738e-07
-2.87746e-06
0.00112013
8.99403e-08
-3.21827e-06
0.00111723
3.85624e-07
-4.15369e-06
0.00111589
5.6628e-07
-5.30935e-06
0.00111592
7.28395e-07
-6.62643e-06
0.00111718
8.7526e-07
-8.14557e-06
0.00111963
1.01574e-06
-9.91018e-06
0.0011233
1.16426e-06
-1.19688e-05
0.00112827
1.33076e-06
-1.43899e-05
0.0011347
1.52322e-06
-1.72672e-05
0.0011428
1.7506e-06
-2.0722e-05
0.00115286
2.02383e-06
-2.49191e-05
0.00116528
2.35714e-06
-3.00878e-05
0.00118056
2.77e-06
-3.65604e-05
0.00119939
3.28941e-06
-4.48402e-05
0.00122266
3.95251e-06
-5.57233e-05
0.00125144
4.81206e-06
-7.05226e-05
0.00128658
5.92586e-06
-9.15217e-05
7.21343e-06
-0.000121905
0.00132682
0.00114272
2.11998e-07
-8.28228e-06
0.00114179
5.87382e-07
-7.27447e-06
0.00114178
1.06898e-06
-6.913e-06
0.00114243
1.39536e-06
-7.29414e-06
0.00114377
1.61118e-06
-7.98154e-06
0.00114583
1.7893e-06
-8.87275e-06
0.00114863
1.95278e-06
-9.99898e-06
0.00115223
2.11044e-06
-1.14073e-05
0.00115676
2.27402e-06
-1.31472e-05
0.00116237
2.45641e-06
-1.52813e-05
0.00116923
2.66987e-06
-1.78932e-05
0.0011776
2.92717e-06
-2.10953e-05
0.00118779
3.24372e-06
-2.50437e-05
0.00120018
3.63893e-06
-2.99576e-05
0.00121529
4.13789e-06
-3.61568e-05
0.00123381
4.77355e-06
-4.4126e-05
0.00125659
5.58962e-06
-5.46364e-05
0.00128469
6.64492e-06
-6.89658e-05
0.00131891
8.01257e-06
-8.93556e-05
9.67655e-06
-0.000118833
0.00135788
0.0011448
3.98376e-07
-8.20901e-06
0.00114563
7.37657e-07
-8.20171e-06
0.0011472
1.09142e-06
-8.18209e-06
0.0011494
1.4152e-06
-8.72865e-06
0.00115223
1.67096e-06
-9.55209e-06
0.00115567
1.87925e-06
-1.05452e-05
0.00115976
2.06547e-06
-1.17275e-05
0.00116455
2.24559e-06
-1.31477e-05
0.00117016
2.43302e-06
-1.48613e-05
0.00117675
2.64177e-06
-1.69351e-05
0.0011845
2.8863e-06
-1.94558e-05
0.00119367
3.18204e-06
-2.25385e-05
0.00120456
3.54697e-06
-2.63387e-05
0.00121756
4.00322e-06
-3.10735e-05
0.0012332
4.57885e-06
-3.70577e-05
0.00125215
5.3099e-06
-4.4769e-05
0.00127526
6.24285e-06
-5.49676e-05
0.00130359
7.43709e-06
-6.8913e-05
0.00133793
8.96414e-06
-8.88231e-05
1.08232e-05
-0.000117678
0.00137691
0.00114468
3.65958e-07
-7.85828e-06
0.0011458
7.00938e-07
-8.10365e-06
0.00114778
9.9742e-07
-8.28416e-06
0.00115055
1.27776e-06
-8.87814e-06
0.00115407
1.53308e-06
-9.69062e-06
0.00115828
1.7639e-06
-1.06518e-05
0.00116317
1.98146e-06
-1.17847e-05
0.00116877
2.19734e-06
-1.314e-05
0.00117519
2.42214e-06
-1.47773e-05
0.00118256
2.66737e-06
-1.67668e-05
0.00119107
2.94615e-06
-1.91964e-05
0.00120096
3.27371e-06
-2.21806e-05
0.00121255
3.66829e-06
-2.58728e-05
0.00122623
4.15245e-06
-3.04867e-05
0.00124251
4.75457e-06
-3.63325e-05
0.00126209
5.51057e-06
-4.38821e-05
0.00128583
6.46585e-06
-5.38872e-05
0.00131476
7.67694e-06
-6.75959e-05
0.00134969
9.21096e-06
-8.72101e-05
1.1081e-05
-0.000115693
0.00138922
0.00114449
2.94445e-07
-7.68248e-06
0.00114565
5.77276e-07
-7.95706e-06
0.00114773
8.16969e-07
-8.25783e-06
0.00115066
1.03557e-06
-8.92519e-06
0.00115438
1.24544e-06
-9.77875e-06
0.00115884
1.44846e-06
-1.07779e-05
0.00116402
1.64795e-06
-1.19498e-05
0.00116995
1.85033e-06
-1.33401e-05
0.00117672
2.06371e-06
-1.50037e-05
0.00118447
2.29761e-06
-1.70082e-05
0.00119339
2.56333e-06
-1.94391e-05
0.00120371
2.87438e-06
-2.24085e-05
0.00121575
3.24716e-06
-2.60673e-05
0.0012299
3.70204e-06
-3.06266e-05
0.00124669
4.26452e-06
-3.63936e-05
0.0012668
4.96655e-06
-4.38361e-05
0.00129109
5.84785e-06
-5.37006e-05
0.00132063
6.95678e-06
-6.72275e-05
0.00135622
8.34815e-06
-8.66092e-05
1.00373e-05
-0.000114809
0.00139647
0.00114433
2.18992e-07
-7.59285e-06
0.00114546
4.35828e-07
-7.84698e-06
0.00114754
6.21232e-07
-8.19309e-06
0.00115049
7.86062e-07
-8.89513e-06
0.00115425
9.45865e-07
-9.75402e-06
0.00115878
1.10681e-06
-1.07427e-05
0.00116405
1.27071e-06
-1.18977e-05
0.0011701
1.44073e-06
-1.32661e-05
0.00117703
1.62231e-06
-1.49026e-05
0.00118496
1.82262e-06
-1.68748e-05
0.00119409
2.05033e-06
-1.92685e-05
0.00120465
2.31595e-06
-2.21956e-05
0.00121696
2.63242e-06
-2.58064e-05
0.00123141
3.0159e-06
-3.03105e-05
0.00124853
3.48665e-06
-3.60134e-05
0.00126901
4.06992e-06
-4.33801e-05
0.00129372
4.79686e-06
-5.31537e-05
0.00132372
5.705e-06
-6.65696e-05
0.00135983
6.83633e-06
-8.58134e-05
8.20988e-06
-0.000113849
0.00140066
0.00114422
1.44719e-07
-7.54469e-06
0.00114531
2.90605e-07
-7.77724e-06
0.00114739
4.17182e-07
-8.14029e-06
0.00115033
5.28172e-07
-8.86556e-06
0.00115411
6.34821e-07
-9.73423e-06
0.00115866
7.43923e-07
-1.07222e-05
0.00116396
8.57434e-07
-1.1873e-05
0.00117006
9.76918e-07
-1.32367e-05
0.00117704
1.10563e-06
-1.48678e-05
0.00118505
1.24838e-06
-1.68333e-05
0.00119428
1.41115e-06
-1.92182e-05
0.00120495
1.60122e-06
-2.21335e-05
0.00121739
1.82754e-06
-2.57285e-05
0.001232
2.10128e-06
-3.02116e-05
0.00124931
2.43641e-06
-3.58866e-05
0.00127
2.85025e-06
-4.32167e-05
0.00129498
3.36393e-06
-5.29428e-05
0.00132528
4.00265e-06
-6.62972e-05
0.00136174
4.79364e-06
-8.54616e-05
5.75342e-06
-0.000113405
0.00140297
0.00114414
7.19265e-08
-7.51937e-06
0.00114522
1.45119e-07
-7.73718e-06
0.00114729
2.09324e-07
-8.10549e-06
0.00115023
2.654e-07
-8.84354e-06
0.00115401
3.18892e-07
-9.71901e-06
0.00115856
3.73958e-07
-1.07057e-05
0.00116387
4.31982e-07
-1.18508e-05
0.00116998
4.93661e-07
-1.32065e-05
0.00117699
5.60494e-07
-1.48277e-05
0.00118503
6.34883e-07
-1.6781e-05
0.0011943
7.1989e-07
-1.91514e-05
0.00120502
8.19218e-07
-2.20499e-05
0.00121753
9.3742e-07
-2.56256e-05
0.00123223
1.08017e-06
-3.00867e-05
0.00124964
1.25454e-06
-3.57367e-05
0.00127046
1.46926e-06
-4.30381e-05
0.00129558
1.73496e-06
-5.2731e-05
0.00132607
2.06429e-06
-6.60464e-05
0.00136274
2.47054e-06
-8.51643e-05
2.96586e-06
-0.000113058
0.0014042
0.00114411
4.35348e-11
-7.50841e-06
0.00114518
9.10245e-11
-7.71903e-06
0.00114724
1.41211e-10
-8.08854e-06
0.00115018
1.95542e-10
-8.83218e-06
0.00115396
2.55686e-10
-9.71133e-06
0.00115851
3.23074e-10
-1.0698e-05
0.00116382
3.99531e-10
-1.18407e-05
0.00116994
4.87373e-10
-1.31931e-05
0.00117696
5.89144e-10
-1.48105e-05
0.00118501
7.07496e-10
-1.67594e-05
0.00119429
8.45336e-10
-1.91247e-05
0.00120504
1.00609e-09
-2.20174e-05
0.00121758
1.19391e-09
-2.55864e-05
0.00123231
1.41383e-09
-3.00398e-05
0.00124976
1.67167e-09
-3.56806e-05
0.00127064
1.97401e-09
-4.29713e-05
0.00129583
2.32805e-09
-5.26513e-05
0.0013264
2.74155e-09
-6.59512e-05
0.00136316
3.22106e-09
-8.505e-05
3.77714e-09
-0.000112925
0.00140475
0.00114411
-7.18399e-08
-7.50841e-06
0.00114518
-1.44937e-07
-7.71903e-06
0.00114724
-2.09045e-07
-8.08854e-06
0.00115018
-2.65014e-07
-8.83217e-06
0.00115396
-3.18387e-07
-9.71133e-06
0.00115851
-3.7332e-07
-1.0698e-05
0.00116382
-4.31193e-07
-1.18407e-05
0.00116994
-4.92697e-07
-1.31931e-05
0.00117696
-5.59328e-07
-1.48105e-05
0.00118501
-6.33483e-07
-1.67594e-05
0.00119429
-7.18217e-07
-1.91247e-05
0.00120504
-8.17227e-07
-2.20174e-05
0.00121758
-9.35057e-07
-2.55864e-05
0.00123231
-1.07737e-06
-3.00397e-05
0.00124976
-1.25123e-06
-3.56806e-05
0.00127064
-1.46536e-06
-4.29713e-05
0.00129583
-1.73036e-06
-5.26513e-05
0.0013264
-2.05886e-06
-6.59511e-05
0.00136316
-2.46416e-06
-8.50499e-05
-2.9584e-06
-0.000112925
0.00140475
0.00114414
-1.44636e-07
-7.51937e-06
0.00114522
-2.90431e-07
-7.73718e-06
0.00114729
-4.16912e-07
-8.10549e-06
0.00115023
-5.27798e-07
-8.84354e-06
0.00115401
-6.34333e-07
-9.719e-06
0.00115856
-7.43305e-07
-1.07057e-05
0.00116387
-8.5667e-07
-1.18508e-05
0.00116998
-9.75985e-07
-1.32065e-05
0.00117699
-1.1045e-06
-1.48276e-05
0.00118503
-1.24702e-06
-1.67809e-05
0.0011943
-1.40953e-06
-1.91514e-05
0.00120502
-1.59929e-06
-2.20499e-05
0.00121753
-1.82525e-06
-2.56255e-05
0.00123223
-2.09857e-06
-3.00867e-05
0.00124964
-2.43321e-06
-3.57366e-05
0.00127046
-2.84647e-06
-4.3038e-05
0.00129558
-3.35947e-06
-5.27309e-05
0.00132607
-3.9974e-06
-6.60463e-05
0.00136274
-4.78747e-06
-8.51641e-05
-5.7462e-06
-0.000113058
0.00140421
0.00114422
-2.18914e-07
-7.54469e-06
0.00114531
-4.35664e-07
-7.77723e-06
0.00114739
-6.20978e-07
-8.14029e-06
0.00115033
-7.85711e-07
-8.86555e-06
0.00115411
-9.45407e-07
-9.73422e-06
0.00115866
-1.10623e-06
-1.07222e-05
0.00116396
-1.26999e-06
-1.1873e-05
0.00117006
-1.43985e-06
-1.32367e-05
0.00117704
-1.62125e-06
-1.48678e-05
0.00118505
-1.82134e-06
-1.68332e-05
0.00119428
-2.0488e-06
-1.92181e-05
0.00120495
-2.31413e-06
-2.21334e-05
0.00121739
-2.63026e-06
-2.57284e-05
0.001232
-3.01335e-06
-3.02115e-05
0.00124931
-3.48363e-06
-3.58865e-05
0.00127
-4.06636e-06
-4.32166e-05
0.00129498
-4.79265e-06
-5.29426e-05
0.00132528
-5.70005e-06
-6.6297e-05
0.00136174
-6.83051e-06
-8.54613e-05
-8.20306e-06
-0.000113404
0.00140297
0.00114433
-2.94374e-07
-7.59285e-06
0.00114546
-5.77127e-07
-7.84697e-06
0.00114754
-8.16737e-07
-8.19308e-06
0.00115049
-1.03525e-06
-8.89512e-06
0.00115425
-1.24502e-06
-9.75401e-06
0.00115878
-1.44793e-06
-1.07427e-05
0.00116405
-1.64729e-06
-1.18977e-05
0.0011701
-1.84952e-06
-1.32661e-05
0.00117703
-2.06273e-06
-1.49025e-05
0.00118496
-2.29643e-06
-1.68747e-05
0.00119409
-2.56193e-06
-1.92685e-05
0.00120465
-2.87271e-06
-2.21955e-05
0.00121696
-3.24518e-06
-2.58063e-05
0.00123141
-3.6997e-06
-3.03104e-05
0.00124853
-4.26175e-06
-3.60133e-05
0.00126901
-4.96328e-06
-4.33799e-05
0.00129372
-5.84399e-06
-5.31534e-05
0.00132373
-6.95223e-06
-6.65692e-05
0.00135984
-8.3428e-06
-8.5813e-05
-1.0031e-05
-0.000113849
0.00140066
0.00114449
-3.65894e-07
-7.68247e-06
0.00114565
-7.00807e-07
-7.95705e-06
0.00114773
-9.97217e-07
-8.25781e-06
0.00115066
-1.27748e-06
-8.92518e-06
0.00115438
-1.53271e-06
-9.77873e-06
0.00115884
-1.76343e-06
-1.07778e-05
0.00116402
-1.98088e-06
-1.19497e-05
0.00116995
-2.19662e-06
-1.334e-05
0.00117672
-2.42127e-06
-1.50037e-05
0.00118447
-2.66632e-06
-1.70082e-05
0.00119339
-2.9449e-06
-1.94391e-05
0.00120371
-3.27224e-06
-2.24084e-05
0.00121575
-3.66655e-06
-2.60671e-05
0.00122991
-4.15038e-06
-3.06264e-05
0.00124669
-4.75212e-06
-3.63934e-05
0.0012668
-5.50768e-06
-4.38358e-05
0.0012911
-6.46243e-06
-5.37003e-05
0.00132063
-7.67291e-06
-6.72271e-05
0.00135622
-9.20622e-06
-8.66087e-05
-1.10755e-05
-0.000114808
0.00139647
0.00114468
-3.98322e-07
-7.85828e-06
0.0011458
-7.37548e-07
-8.10364e-06
0.00114778
-1.09125e-06
-8.28415e-06
0.00115055
-1.41496e-06
-8.87811e-06
0.00115407
-1.67065e-06
-9.69059e-06
0.00115828
-1.87885e-06
-1.06518e-05
0.00116317
-2.06497e-06
-1.17846e-05
0.00116877
-2.24498e-06
-1.31399e-05
0.00117519
-2.43228e-06
-1.47772e-05
0.00118256
-2.64089e-06
-1.67667e-05
0.00119107
-2.88524e-06
-1.91963e-05
0.00120096
-3.18079e-06
-2.21805e-05
0.00121255
-3.54549e-06
-2.58726e-05
0.00122623
-4.00148e-06
-3.04865e-05
0.00124252
-4.57679e-06
-3.63323e-05
0.00126209
-5.30746e-06
-4.38818e-05
0.00128583
-6.23996e-06
-5.38868e-05
0.00131476
-7.43369e-06
-6.75954e-05
0.00134969
-8.96013e-06
-8.72095e-05
-1.08185e-05
-0.000115693
0.00138922
0.0011448
-2.11954e-07
-8.20901e-06
0.00114563
-5.87299e-07
-8.20169e-06
0.0011472
-1.06885e-06
-8.18207e-06
0.0011494
-1.39518e-06
-8.72863e-06
0.00115223
-1.61094e-06
-9.55205e-06
0.00115567
-1.78899e-06
-1.05452e-05
0.00115976
-1.95238e-06
-1.17274e-05
0.00116455
-2.10996e-06
-1.31477e-05
0.00117016
-2.27342e-06
-1.48612e-05
0.00117675
-2.45571e-06
-1.6935e-05
0.0011845
-2.66903e-06
-1.94557e-05
0.00119367
-2.92619e-06
-2.25383e-05
0.00120456
-3.24256e-06
-2.63385e-05
0.00121756
-3.63756e-06
-3.10733e-05
0.0012332
-4.13626e-06
-3.70575e-05
0.00125215
-4.77162e-06
-4.47687e-05
0.00127527
-5.58735e-06
-5.49672e-05
0.0013036
-6.64224e-06
-6.89125e-05
0.00133794
-8.0094e-06
-8.88224e-05
-9.67281e-06
-0.000117677
0.00137692
0.00114272
2.25732e-06
-8.28228e-06
0.00114179
7.27435e-07
-7.27445e-06
0.00114178
-8.98532e-08
-6.91298e-06
0.00114243
-3.85498e-07
-7.29411e-06
0.00114377
-5.6611e-07
-7.9815e-06
0.00114583
-7.28172e-07
-8.8727e-06
0.00114863
-8.74974e-07
-9.99892e-06
0.00115224
-1.01539e-06
-1.14072e-05
0.00115676
-1.16383e-06
-1.31471e-05
0.00116237
-1.33025e-06
-1.52812e-05
0.00116923
-1.52262e-06
-1.7893e-05
0.0011776
-1.7499e-06
-2.10952e-05
0.00118779
-2.023e-06
-2.50435e-05
0.00120018
-2.35615e-06
-2.99574e-05
0.0012153
-2.76884e-06
-3.61565e-05
0.00123381
-3.28805e-06
-4.41256e-05
0.00125659
-3.9509e-06
-5.4636e-05
0.00128469
-4.81016e-06
-6.89652e-05
0.00131892
-5.92361e-06
-8.93548e-05
-7.21075e-06
-0.000118832
0.00135789
0.00113138
1.012e-05
-3.29365e-06
0.0011247
4.53006e-06
-2.87745e-06
0.00112013
2.91533e-06
-3.21825e-06
0.00111723
2.05776e-06
-4.15366e-06
0.00111589
1.39537e-06
-5.30931e-06
0.00111592
8.86422e-07
-6.62637e-06
0.00111718
5.04913e-07
-8.1455e-06
0.00111963
2.06536e-07
-9.91009e-06
0.0011233
-4.27541e-08
-1.19687e-05
0.00112827
-2.65648e-07
-1.43898e-05
0.0011347
-4.79422e-07
-1.7267e-05
0.0011428
-6.9675e-07
-2.07218e-05
0.00115286
-9.28677e-07
-2.4919e-05
0.00116528
-1.18704e-06
-3.00875e-05
0.00118056
-1.48619e-06
-3.65601e-05
0.00119939
-1.84511e-06
-4.48398e-05
0.00122266
-2.2903e-06
-5.57228e-05
0.00125144
-2.86161e-06
-7.0522e-05
0.00128659
-3.60189e-06
-9.15209e-05
-4.32016e-06
-0.000121903
0.00132682
0.000996278
-3.19644e-06
0.00100158
-1.63989e-06
0.00100538
-1.83816e-06
0.00100902
-2.78873e-06
0.00101278
-3.91164e-06
0.00101682
-5.2133e-06
0.00102132
-6.75558e-06
0.00102646
-8.57529e-06
0.00103244
-1.07165e-05
0.00103947
-1.32457e-05
0.00104777
-1.62585e-05
0.00105763
-1.9887e-05
0.00106941
-2.43064e-05
0.00108355
-2.97605e-05
0.00110063
-3.66028e-05
0.0011214
-4.53686e-05
0.00114682
-5.6905e-05
0.001178
-7.26026e-05
0.00121587
-9.48333e-05
-0.000127155
0.00125957
0.00099694
-1.02391e-05
-1.50464e-06
0.00100356
-5.74198e-06
-2.52178e-06
0.00100957
-4.16144e-06
-3.6801e-06
0.00101523
-3.18838e-06
-5.26363e-06
0.00102082
-2.40361e-06
-7.10028e-06
0.00102651
-1.74564e-06
-9.15096e-06
0.00103243
-1.1986e-06
-1.1479e-05
0.00103875
-7.3565e-07
-1.4163e-05
0.00104566
-3.30423e-07
-1.72885e-05
0.00105334
3.41584e-08
-2.09621e-05
0.00106202
3.74644e-07
-2.53171e-05
0.00107195
7.09389e-07
-3.05258e-05
0.00108341
1.05233e-06
-3.6818e-05
0.00109674
1.41725e-06
-4.45027e-05
0.00111232
1.81921e-06
-5.40041e-05
0.0011306
2.27844e-06
-6.59267e-05
0.00115202
2.82369e-06
-8.11474e-05
0.00117687
3.49496e-06
-0.000100945
0.00120489
4.33791e-06
-0.000127196
5.20981e-06
-0.000162247
0.00123478
0.00114304
-7.27235e-06
-1.20474e-06
0.00114197
-5.18696e-06
-2.35958e-06
0.00114177
-3.70342e-06
-3.47303e-06
0.00114216
-2.88835e-06