/*--------------------------------*- C++ -*----------------------------------*\
  =========                 |
  \\      /  F ield         | OpenFOAM: The Open Source CFD Toolbox
   \\    /   O peration     | Website:  https://openfoam.org
    \\  /    A nd           | Version:  10
     \\/     M anipulation  |
\*---------------------------------------------------------------------------*/
FoamFile
{
    format      ascii;
    class       volScalarField;
    location    "200";
    object      rho;
}
// * * * * * * * * * * * * * * * * * * * * * * * * * * * * * * * * * * * * * //

dimensions      [1 -3 0 0 0 0 0];

internalField   nonuniform List<scalar> 
112000
(
0.458596
0.457171
0.456021
0.455325
0.454818
0.454322
0.45378
0.453173
0.452483
0.451685
0.450752
0.449649
0.448335
0.446754
0.44483
0.442454
0.439466
0.435611
0.430402
0.423987
0.455025
0.454903
0.454638
0.454411
0.45419
0.453913
0.453551
0.453093
0.452528
0.451836
0.450994
0.44997
0.448723
0.447198
0.445318
0.442974
0.440003
0.436147
0.430901
0.424472
0.455433
0.455472
0.455361
0.455164
0.454917
0.454614
0.454235
0.453767
0.453193
0.452494
0.451646
0.450616
0.449361
0.447826
0.445932
0.443569
0.440571
0.436675
0.431362
0.424879
0.455444
0.455348
0.455151
0.454933
0.454698
0.454422
0.454079
0.45365
0.453116
0.452454
0.451641
0.450641
0.449414
0.447901
0.446024
0.44367
0.440672
0.436763
0.431412
0.424898
0.455404
0.455298
0.455121
0.45495
0.45476
0.454518
0.454201
0.453792
0.453274
0.452627
0.451824
0.450834
0.449613
0.448103
0.446225
0.443865
0.440852
0.436916
0.431518
0.424956
0.455357
0.45525
0.455072
0.454899
0.454706
0.454458
0.454137
0.453726
0.453207
0.452561
0.451761
0.450774
0.449556
0.448047
0.446168
0.443803
0.440779
0.436822
0.431386
0.424787
0.455315
0.455209
0.455033
0.454863
0.454674
0.454432
0.454116
0.453711
0.453197
0.452555
0.451758
0.450772
0.449553
0.448042
0.446158
0.443782
0.440742
0.436761
0.431288
0.424648
0.455283
0.455177
0.455003
0.454835
0.454647
0.454405
0.454089
0.453681
0.453165
0.452521
0.45172
0.45073
0.449506
0.447988
0.446095
0.443708
0.440652
0.43665
0.431147
0.424472
0.455261
0.455156
0.454983
0.454816
0.454629
0.454387
0.454071
0.453663
0.453147
0.452502
0.4517
0.450708
0.449481
0.447959
0.44606
0.443666
0.440599
0.436581
0.431057
0.424356
0.45525
0.455145
0.454973
0.454807
0.45462
0.454378
0.454061
0.453653
0.453137
0.45249
0.451687
0.450693
0.449464
0.44794
0.446037
0.443638
0.440564
0.436538
0.431004
0.424287
0.45525
0.455145
0.454973
0.454807
0.45462
0.454378
0.454061
0.453653
0.453137
0.45249
0.451687
0.450693
0.449464
0.44794
0.446037
0.443638
0.440564
0.436538
0.431003
0.424287
0.455261
0.455156
0.454983
0.454816
0.454629
0.454387
0.454071
0.453663
0.453147
0.452501
0.4517
0.450708
0.449481
0.447959
0.44606
0.443666
0.440598
0.436581
0.431057
0.424355
0.455283
0.455177
0.455003
0.454835
0.454647
0.454405
0.454088
0.453681
0.453165
0.452521
0.45172
0.45073
0.449506
0.447988
0.446095
0.443708
0.440652
0.436649
0.431147
0.424472
0.455315
0.455209
0.455033
0.454863
0.454674
0.454432
0.454116
0.45371
0.453197
0.452555
0.451758
0.450772
0.449553
0.448042
0.446157
0.443782
0.440741
0.43676
0.431288
0.424647
0.455357
0.45525
0.455072
0.454899
0.454706
0.454458
0.454137
0.453725
0.453207
0.452561
0.451761
0.450774
0.449555
0.448047
0.446168
0.443803
0.440778
0.436821
0.431385
0.424786
0.455404
0.455298
0.455121
0.45495
0.454759
0.454517
0.454201
0.453792
0.453274
0.452627
0.451824
0.450834
0.449613
0.448103
0.446225
0.443865
0.440852
0.436916
0.431517
0.424955
0.455444
0.455348
0.455151
0.454933
0.454698
0.454421
0.454079
0.45365
0.453115
0.452454
0.45164
0.450641
0.449413
0.4479
0.446023
0.44367
0.440671
0.436762
0.431412
0.424898
0.455433
0.455472
0.455361
0.455163
0.454917
0.454614
0.454235
0.453767
0.453193
0.452494
0.451646
0.450615
0.449361
0.447825
0.445931
0.443569
0.44057
0.436675
0.431362
0.424878
0.455025
0.454903
0.454638
0.45441
0.45419
0.453913
0.453551
0.453093
0.452527
0.451836
0.450994
0.44997
0.448723
0.447197
0.445317
0.442973
0.440002
0.436146
0.4309
0.424471
0.458595
0.457171
0.456021
0.455325
0.454817
0.454322
0.45378
0.453173
0.452483
0.451685
0.450751
0.449649
0.448335
0.446754
0.44483
0.442454
0.439465
0.43561
0.430401
0.423986
0.455112
0.454992
0.45473
0.454508
0.454296
0.454031
0.453685
0.453249
0.452709
0.45205
0.451248
0.450272
0.449085
0.447635
0.445852
0.443639
0.440855
0.437295
0.432608
0.426741
0.451415
0.451731
0.452025
0.452138
0.452119
0.451996
0.451773
0.451445
0.451004
0.450433
0.449712
0.448811
0.447693
0.446305
0.444578
0.442415
0.439674
0.436146
0.43148
0.425657
0.452001
0.452563
0.452988
0.453104
0.453013
0.452798
0.452483
0.452068
0.451544
0.450895
0.450101
0.449131
0.447947
0.446495
0.444705
0.442477
0.439665
0.436058
0.431296
0.425393
0.451972
0.452517
0.452914
0.453048
0.453001
0.452833
0.452562
0.452184
0.451687
0.451058
0.450276
0.44931
0.448123
0.446661
0.444852
0.442595
0.439744
0.436083
0.431242
0.425263
0.451907
0.452487
0.452932
0.453127
0.453145
0.453034
0.452809
0.452466
0.451997
0.451388
0.450619
0.44966
0.448473
0.447004
0.445182
0.442903
0.440019
0.436311
0.431401
0.425351
0.451849
0.452437
0.452891
0.453092
0.453117
0.453016
0.452802
0.452474
0.452021
0.451428
0.450674
0.449729
0.448554
0.447094
0.445275
0.442993
0.440097
0.436364
0.431412
0.425318
0.451802
0.452393
0.452852
0.453059
0.45309
0.452997
0.452793
0.452476
0.452035
0.451454
0.450711
0.449775
0.448607
0.447152
0.445334
0.443049
0.440143
0.436391
0.431407
0.425278
0.451767
0.452359
0.452822
0.453031
0.453063
0.452971
0.452768
0.452452
0.452012
0.451432
0.45069
0.449755
0.448588
0.447132
0.445311
0.44302
0.440104
0.436337
0.431329
0.425173
0.451744
0.452337
0.452801
0.453012
0.453045
0.452953
0.45275
0.452434
0.451995
0.451415
0.450673
0.449738
0.44857
0.447112
0.445289
0.442993
0.440069
0.436291
0.431266
0.425089
0.451732
0.452326
0.452791
0.453003
0.453036
0.452943
0.45274
0.452424
0.451984
0.451404
0.450661
0.449726
0.448556
0.447096
0.44527
0.442971
0.440043
0.436257
0.431224
0.425036
0.451732
0.452326
0.452791
0.453003
0.453036
0.452943
0.45274
0.452424
0.451984
0.451404
0.450661
0.449726
0.448556
0.447096
0.44527
0.442971
0.440043
0.436257
0.431224
0.425036
0.451744
0.452337
0.452801
0.453012
0.453045
0.452953
0.45275
0.452434
0.451995
0.451415
0.450673
0.449738
0.44857
0.447112
0.445289
0.442993
0.440069
0.43629
0.431266
0.425089
0.451767
0.452359
0.452822
0.453031
0.453063
0.452971
0.452768
0.452452
0.452012
0.451432
0.45069
0.449755
0.448588
0.447131
0.445311
0.44302
0.440104
0.436337
0.431329
0.425172
0.451802
0.452393
0.452852
0.453059
0.45309
0.452997
0.452793
0.452476
0.452035
0.451454
0.450711
0.449775
0.448607
0.447152
0.445334
0.443048
0.440142
0.436391
0.431407
0.425278
0.451849
0.452437
0.452891
0.453092
0.453117
0.453016
0.452802
0.452473
0.452021
0.451428
0.450674
0.449729
0.448554
0.447094
0.445275
0.442992
0.440096
0.436363
0.431412
0.425317
0.451907
0.452487
0.452931
0.453127
0.453145
0.453034
0.452808
0.452466
0.451997
0.451388
0.450618
0.44966
0.448472
0.447004
0.445182
0.442903
0.440019
0.43631
0.431401
0.425351
0.451972
0.452517
0.452914
0.453048
0.453001
0.452833
0.452562
0.452183
0.451687
0.451058
0.450275
0.44931
0.448122
0.44666
0.444852
0.442595
0.439744
0.436082
0.431242
0.425262
0.452001
0.452563
0.452988
0.453104
0.453013
0.452798
0.452483
0.452068
0.451544
0.450895
0.450101
0.449131
0.447947
0.446495
0.444705
0.442476
0.439665
0.436057
0.431295
0.425392
0.451414
0.451731
0.452025
0.452138
0.452119
0.451996
0.451773
0.451445
0.451004
0.450433
0.449712
0.448811
0.447693
0.446305
0.444578
0.442415
0.439673
0.436145
0.431479
0.425656
0.455112
0.454992
0.454729
0.454508
0.454296
0.454031
0.453685
0.453248
0.452709
0.45205
0.451247
0.450272
0.449085
0.447635
0.445852
0.443638
0.440855
0.437294
0.432607
0.42674
0.455677
0.455718
0.455612
0.455426
0.455197
0.454919
0.454576
0.454152
0.453635
0.453007
0.452247
0.451328
0.450214
0.44886
0.447207
0.445175
0.442658
0.439508
0.435512
0.430647
0.452169
0.452731
0.453161
0.453285
0.453208
0.453012
0.452723
0.45234
0.451857
0.451259
0.450528
0.449638
0.448555
0.447232
0.445612
0.443614
0.44113
0.438013
0.434046
0.429238
0.453619
0.453477
0.453555
0.453476
0.453234
0.452903
0.452511
0.45205
0.451506
0.45086
0.450088
0.449162
0.448045
0.44669
0.445037
0.443003
0.440477
0.437311
0.433279
0.42842
0.45366
0.453619
0.453639
0.453527
0.453273
0.452928
0.452518
0.45204
0.451477
0.450811
0.450019
0.449071
0.447929
0.446547
0.444861
0.442788
0.440215
0.436988
0.432877
0.427941
0.453522
0.453668
0.453806
0.453776
0.453591
0.453295
0.452913
0.452445
0.451881
0.451204
0.450394
0.449422
0.448252
0.446836
0.44511
0.442989
0.44036
0.437065
0.432867
0.427846
0.453433
0.453633
0.45381
0.4538
0.453634
0.453364
0.453009
0.452565
0.452023
0.451365
0.450569
0.449607
0.448441
0.447023
0.445288
0.44315
0.440494
0.437159
0.432904
0.427824
0.453371
0.453584
0.453779
0.453781
0.453627
0.453373
0.453037
0.452614
0.452092
0.451453
0.450673
0.449725
0.448569
0.447158
0.445424
0.443282
0.440612
0.437254
0.432962
0.427843
0.453328
0.453545
0.453749
0.453756
0.453605
0.453354
0.453023
0.452606
0.452091
0.451458
0.450686
0.449744
0.448595
0.447187
0.445455
0.443311
0.440635
0.437265
0.43295
0.427808
0.453301
0.453519
0.453727
0.453738
0.453588
0.453337
0.453006
0.452592
0.452078
0.451449
0.45068
0.449741
0.448594
0.447188
0.445457
0.443311
0.440631
0.437253
0.432924
0.427766
0.453287
0.453506
0.453716
0.453729
0.453579
0.453327
0.452997
0.452582
0.452069
0.45144
0.450671
0.449733
0.448586
0.44718
0.445448
0.443301
0.440618
0.437235
0.432899
0.427734
0.453287
0.453506
0.453716
0.453729
0.453579
0.453327
0.452997
0.452582
0.452069
0.45144
0.450671
0.449733
0.448586
0.44718
0.445448
0.443301
0.440618
0.437235
0.432899
0.427734
0.453301
0.453519
0.453727
0.453738
0.453588
0.453337
0.453006
0.452591
0.452078
0.451449
0.45068
0.449741
0.448594
0.447188
0.445457
0.443311
0.440631
0.437252
0.432924
0.427766
0.453328
0.453545
0.453749
0.453756
0.453605
0.453354
0.453023
0.452606
0.452091
0.451458
0.450686
0.449744
0.448595
0.447187
0.445455
0.443311
0.440635
0.437265
0.43295
0.427807
0.453371
0.453584
0.453779
0.453781
0.453627
0.453373
0.453037
0.452614
0.452092
0.451453
0.450673
0.449725
0.448569
0.447157
0.445424
0.443281
0.440612
0.437254
0.432962
0.427843
0.453433
0.453633
0.45381
0.4538
0.453634
0.453364
0.453009
0.452565
0.452023
0.451365
0.450569
0.449606
0.448441
0.447022
0.445287
0.44315
0.440493
0.437159
0.432904
0.427823
0.453522
0.453668
0.453806
0.453776
0.45359
0.453295
0.452913
0.452445
0.451881
0.451204
0.450394
0.449422
0.448252
0.446836
0.445109
0.442989
0.440359
0.437065
0.432867
0.427845
0.45366
0.453619
0.453639
0.453527
0.453273
0.452928
0.452518
0.45204
0.451477
0.450811
0.450019
0.44907
0.447929
0.446547
0.444861
0.442787
0.440214
0.436988
0.432876
0.42794
0.453619
0.453477
0.453555
0.453476
0.453234
0.452903
0.452511
0.45205
0.451506
0.45086
0.450088
0.449161
0.448044
0.44669
0.445036
0.443002
0.440477
0.43731
0.433279
0.428419
0.452169
0.452731
0.453161
0.453285
0.453208
0.453012
0.452723
0.45234
0.451857
0.451259
0.450528
0.449638
0.448554
0.447232
0.445612
0.443613
0.441129
0.438013
0.434046
0.429237
0.455677
0.455718
0.455612
0.455425
0.455197
0.454919
0.454576
0.454152
0.453635
0.453007
0.452247
0.451327
0.450213
0.448859
0.447206
0.445175
0.442657
0.439507
0.435511
0.430646
0.455911
0.455817
0.455628
0.455429
0.455224
0.454991
0.454707
0.454353
0.453915
0.453375
0.452715
0.451911
0.450934
0.449745
0.448298
0.446532
0.444372
0.441726
0.438475
0.434619
0.452368
0.452915
0.453321
0.453474
0.453457
0.453331
0.453115
0.452808
0.452401
0.451885
0.451243
0.450455
0.449491
0.448317
0.446886
0.44514
0.443003
0.440381
0.437157
0.433347
0.453904
0.453863
0.45389
0.453793
0.453559
0.453243
0.452869
0.452436
0.451929
0.451333
0.450626
0.449784
0.448777
0.447565
0.446101
0.444322
0.442152
0.439493
0.436224
0.432383
0.454542
0.453924
0.453583
0.45335
0.453084
0.452764
0.452396
0.451971
0.451473
0.450882
0.450178
0.449334
0.448321
0.447098
0.445615
0.443812
0.441608
0.438906
0.435577
0.431678
0.45443
0.454108
0.453877
0.453692
0.453455
0.453142
0.452759
0.452306
0.451774
0.451145
0.450401
0.449515
0.448458
0.447188
0.445656
0.443799
0.441534
0.438763
0.43535
0.431368
0.454272
0.454128
0.453999
0.453853
0.453641
0.453353
0.45299
0.45255
0.452024
0.451396
0.450647
0.449752
0.448679
0.447389
0.44583
0.443938
0.44163
0.438804
0.435323
0.431272
0.454181
0.454086
0.454001
0.453878
0.453688
0.453427
0.453094
0.452682
0.452181
0.451573
0.450839
0.449954
0.448886
0.447595
0.446029
0.444122
0.441791
0.438932
0.435403
0.431304
0.454123
0.454041
0.453976
0.453865
0.453682
0.453429
0.453108
0.452711
0.452224
0.45163
0.450909
0.450035
0.448977
0.447692
0.446128
0.44422
0.44188
0.439006
0.435452
0.431326
0.454087
0.45401
0.453954
0.45385
0.453668
0.453417
0.453099
0.452707
0.452227
0.45164
0.450927
0.45006
0.449008
0.447729
0.446169
0.444261
0.44192
0.439039
0.435473
0.431333
0.454071
0.453995
0.453943
0.453841
0.45366
0.453408
0.453091
0.4527
0.452221
0.451637
0.450926
0.450062
0.449012
0.447735
0.446177
0.44427
0.441928
0.439044
0.435473
0.431328
0.454071
0.453995
0.453943
0.453841
0.45366
0.453408
0.453091
0.4527
0.452221
0.451637
0.450926
0.450062
0.449012
0.447735
0.446177
0.44427
0.441928
0.439044
0.435473
0.431328
0.454087
0.45401
0.453954
0.45385
0.453668
0.453417
0.453099
0.452707
0.452227
0.45164
0.450926
0.45006
0.449008
0.447729
0.446169
0.444261
0.44192
0.439039
0.435472
0.431333
0.454123
0.454041
0.453976
0.453865
0.453682
0.453429
0.453108
0.452711
0.452224
0.45163
0.450909
0.450035
0.448977
0.447692
0.446128
0.444219
0.44188
0.439005
0.435452
0.431326
0.45418
0.454086
0.454001
0.453878
0.453688
0.453427
0.453094
0.452682
0.452181
0.451573
0.450839
0.449954
0.448886
0.447595
0.446029
0.444122
0.441791
0.438931
0.435403
0.431303
0.454272
0.454128
0.453999
0.453853
0.453641
0.453353
0.45299
0.45255
0.452024
0.451396
0.450647
0.449752
0.448679
0.447388
0.44583
0.443938
0.44163
0.438804
0.435322
0.431271
0.45443
0.454108
0.453877
0.453692
0.453455
0.453141
0.452759
0.452306
0.451774
0.451145
0.450401
0.449515
0.448457
0.447188
0.445656
0.443799
0.441534
0.438762
0.435349
0.431367
0.454542
0.453924
0.453583
0.45335
0.453084
0.452764
0.452395
0.45197
0.451472
0.450882
0.450178
0.449334
0.44832
0.447097
0.445615
0.443812
0.441608
0.438905
0.435576
0.431677
0.453904
0.453863
0.45389
0.453793
0.453559
0.453243
0.452869
0.452435
0.451929
0.451333
0.450626
0.449784
0.448776
0.447564
0.4461
0.444322
0.442151
0.439493
0.436223
0.432382
0.452368
0.452914
0.453321
0.453474
0.453457
0.453331
0.453115
0.452808
0.452401
0.451885
0.451243
0.450454
0.449491
0.448317
0.446886
0.445139
0.443002
0.44038
0.437156
0.433346
0.455911
0.455816
0.455628
0.455429
0.455224
0.454991
0.454707
0.454353
0.453915
0.453375
0.452715
0.451911
0.450933
0.449744
0.448297
0.446531
0.444371
0.441725
0.438474
0.434618
0.456148
0.456046
0.455885
0.455745
0.455604
0.45543
0.455204
0.454912
0.454543
0.454082
0.453515
0.452822
0.45198
0.450961
0.449728
0.448241
0.44645
0.444302
0.441741
0.438776
0.452584
0.453166
0.453627
0.453853
0.453919
0.453874
0.453736
0.453506
0.45318
0.452751
0.452206
0.451531
0.450704
0.449698
0.448479
0.447008
0.445236
0.443108
0.440568
0.437633
0.454057
0.454204
0.454354
0.45435
0.454204
0.453963
0.453653
0.453277
0.452828
0.452296
0.451666
0.450919
0.450031
0.448974
0.447712
0.446202
0.444394
0.442231
0.439653
0.436687
0.454736
0.454413
0.454188
0.454017
0.453802
0.45352
0.453178
0.452777
0.45231
0.451762
0.451117
0.450356
0.449454
0.448382
0.447102
0.445571
0.443736
0.44154
0.438917
0.435906
0.455088
0.454515
0.454157
0.453953
0.45375
0.453484
0.453149
0.452746
0.452268
0.451706
0.451041
0.450257
0.449328
0.448224
0.446909
0.445337
0.443456
0.441206
0.438518
0.435439
0.454942
0.454641
0.454382
0.454193
0.453986
0.453712
0.453366
0.452948
0.452454
0.451873
0.45119
0.450384
0.44943
0.448299
0.446952
0.445343
0.443417
0.441114
0.438362
0.435217
0.454788
0.454642
0.454481
0.454333
0.454152
0.453904
0.453581
0.45318
0.452698
0.452122
0.451439
0.450627
0.449664
0.448517
0.447149
0.445512
0.443552
0.441205
0.438399
0.435199
0.454702
0.454601
0.454484
0.454358
0.454191
0.453961
0.453659
0.45328
0.452816
0.452256
0.451586
0.450783
0.449825
0.448679
0.447307
0.445661
0.443685
0.441315
0.438476
0.435241
0.454654
0.454564
0.454466
0.454351
0.45419
0.453967
0.453674
0.453307
0.452856
0.452309
0.45165
0.450858
0.449909
0.44877
0.447401
0.445756
0.443775
0.441396
0.438541
0.435289
0.454632
0.454545
0.454454
0.454345
0.454185
0.453962
0.453672
0.453309
0.452863
0.452321
0.451668
0.450882
0.449937
0.448803
0.447438
0.445794
0.443813
0.441431
0.43857
0.435313
0.454632
0.454545
0.454454
0.454345
0.454185
0.453962
0.453672
0.453309
0.452863
0.452321
0.451668
0.450882
0.449937
0.448803
0.447438
0.445794
0.443813
0.441431
0.43857
0.435313
0.454654
0.454564
0.454466
0.454351
0.45419
0.453967
0.453674
0.453307
0.452856
0.452309
0.45165
0.450858
0.449909
0.44877
0.447401
0.445756
0.443775
0.441396
0.43854
0.435289
0.454702
0.454601
0.454484
0.454358
0.454191
0.453961
0.453659
0.45328
0.452816
0.452256
0.451585
0.450783
0.449825
0.448679
0.447307
0.445661
0.443685
0.441315
0.438475
0.435241
0.454788
0.454642
0.454481
0.454333
0.454152
0.453904
0.453581
0.45318
0.452698
0.452122
0.451439
0.450627
0.449664
0.448517
0.447148
0.445512
0.443551
0.441205
0.438398
0.435198
0.454942
0.454641
0.454382
0.454193
0.453986
0.453712
0.453366
0.452948
0.452454
0.451873
0.451189
0.450383
0.44943
0.448299
0.446951
0.445342
0.443417
0.441114
0.438361
0.435217
0.455088
0.454515
0.454157
0.453952
0.45375
0.453484
0.453149
0.452745
0.452268
0.451705
0.451041
0.450257
0.449327
0.448224
0.446908
0.445337
0.443456
0.441205
0.438517
0.435439
0.454736
0.454413
0.454188
0.454017
0.453802
0.45352
0.453178
0.452777
0.45231
0.451762
0.451117
0.450356
0.449454
0.448382
0.447102
0.445571
0.443736
0.441539
0.438917
0.435905
0.454057
0.454204
0.454354
0.45435
0.454204
0.453963
0.453653
0.453277
0.452828
0.452296
0.451666
0.450918
0.450031
0.448974
0.447711
0.446202
0.444394
0.442231
0.439652
0.436686
0.452583
0.453166
0.453626
0.453853
0.453919
0.453874
0.453736
0.453506
0.45318
0.45275
0.452206
0.451531
0.450703
0.449697
0.448479
0.447008
0.445235
0.443107
0.440567
0.437632
0.456148
0.456046
0.455885
0.455745
0.455603
0.45543
0.455204
0.454912
0.454542
0.454082
0.453515
0.452822
0.45198
0.45096
0.449728
0.44824
0.446449
0.444301
0.44174
0.438775
0.456425
0.456325
0.456171
0.456044
0.455922
0.455774
0.455583
0.455339
0.455033
0.454653
0.454187
0.453618
0.452931
0.452102
0.451109
0.449924
0.448518
0.446863
0.44494
0.442763
0.45285
0.453444
0.453921
0.454168
0.454263
0.454259
0.454172
0.454006
0.453758
0.453423
0.452991
0.45245
0.451785
0.450976
0.45
0.448831
0.447441
0.445802
0.443893
0.441733
0.454301
0.454502
0.454699
0.454729
0.454625
0.45444
0.454196
0.453895
0.453532
0.453098
0.452582
0.451969
0.451241
0.450378
0.449355
0.448143
0.446714
0.445037
0.44309
0.440891
0.454921
0.454776
0.454659
0.454541
0.454376
0.45415
0.45387
0.453536
0.453143
0.452682
0.452139
0.4515
0.450748
0.44986
0.44881
0.447572
0.446113
0.444402
0.442412
0.440167
0.455299
0.454997
0.454745
0.454573
0.454392
0.454154
0.453854
0.453494
0.453073
0.452582
0.452009
0.451339
0.450555
0.449633
0.44855
0.447274
0.445774
0.444017
0.441973
0.43967
0.455546
0.455049
0.454688
0.454462
0.454263
0.454027
0.453735
0.453386
0.452973
0.452489
0.451919
0.451249
0.450459
0.449527
0.448427
0.447128
0.445598
0.443802
0.44171
0.439355
0.4554
0.455139
0.454876
0.454671
0.454471
0.454232
0.453936
0.453581
0.453161
0.452666
0.452084
0.4514
0.450593
0.449641
0.448517
0.44719
0.445626
0.44379
0.441649
0.439242
0.455259
0.455135
0.454963
0.454796
0.454616
0.454393
0.454114
0.453771
0.453358
0.452867
0.452285
0.451596
0.450781
0.449818
0.448679
0.447332
0.445742
0.443874
0.441693
0.439245
0.455187
0.455102
0.45497
0.454823
0.454655
0.454448
0.454186
0.453861
0.453465
0.452987
0.452416
0.451736
0.450926
0.449964
0.448822
0.447467
0.445865
0.443979
0.441774
0.4393
0.455156
0.45508
0.454962
0.454824
0.45466
0.454458
0.454204
0.453889
0.453502
0.453034
0.452471
0.451797
0.450993
0.450035
0.448894
0.447539
0.445933
0.444041
0.441825
0.43934
0.455156
0.45508
0.454962
0.454824
0.45466
0.454458
0.454204
0.453889
0.453502
0.453034
0.452471
0.451797
0.450993
0.450035
0.448894
0.447539
0.445933
0.44404
0.441825
0.43934
0.455187
0.455102
0.45497
0.454823
0.454655
0.454448
0.454186
0.453861
0.453465
0.452987
0.452416
0.451736
0.450926
0.449964
0.448821
0.447467
0.445865
0.443978
0.441773
0.439299
0.455259
0.455135
0.454963
0.454796
0.454615
0.454393
0.454114
0.453771
0.453358
0.452867
0.452284
0.451596
0.450781
0.449818
0.448679
0.447332
0.445742
0.443874
0.441693
0.439245
0.4554
0.455139
0.454876
0.45467
0.454471
0.454232
0.453936
0.453581
0.453161
0.452666
0.452084
0.4514
0.450593
0.449641
0.448517
0.44719
0.445626
0.443789
0.441648
0.439241
0.455546
0.455049
0.454688
0.454462
0.454263
0.454027
0.453735
0.453385
0.452973
0.452489
0.451919
0.451249
0.450459
0.449527
0.448427
0.447128
0.445598
0.443802
0.44171
0.439354
0.455299
0.454997
0.454745
0.454573
0.454392
0.454154
0.453853
0.453494
0.453072
0.452581
0.452009
0.451339
0.450554
0.449633
0.44855
0.447274
0.445774
0.444016
0.441972
0.439669
0.454921
0.454776
0.454659
0.454541
0.454375
0.45415
0.45387
0.453536
0.453143
0.452681
0.452139
0.4515
0.450747
0.449859
0.44881
0.447571
0.446112
0.444401
0.442411
0.440167
0.454301
0.454502
0.454699
0.454729
0.454625
0.45444
0.454196
0.453895
0.453532
0.453098
0.452582
0.451968
0.451241
0.450378
0.449354
0.448143
0.446713
0.445037
0.443089
0.44089
0.45285
0.453443
0.45392
0.454168
0.454263
0.454258
0.454172
0.454006
0.453758
0.453423
0.452991
0.45245
0.451785
0.450976
0.45
0.448831
0.44744
0.445801
0.443892
0.441732
0.456425
0.456325
0.456171
0.456044
0.455922
0.455774
0.455583
0.455339
0.455033
0.454653
0.454186
0.453618
0.45293
0.452102
0.451109
0.449924
0.448517
0.446862
0.444939
0.442762
0.456745
0.456648
0.456505
0.456399
0.456307
0.456199
0.456059
0.455878
0.455648
0.455359
0.455003
0.454568
0.454041
0.45341
0.452657
0.451769
0.450729
0.449528
0.448165
0.44666
0.453164
0.453763
0.454255
0.454525
0.454651
0.45469
0.454658
0.454559
0.454392
0.454154
0.453838
0.453435
0.452936
0.452327
0.451595
0.450724
0.449701
0.448514
0.447165
0.445669
0.454606
0.454822
0.455045
0.455104
0.455037
0.454901
0.454721
0.454495
0.454221
0.453891
0.453496
0.453026
0.452468
0.451808
0.451031
0.450119
0.449058
0.447835
0.446447
0.444911
0.455204
0.45511
0.455044
0.454966
0.454846
0.454681
0.454475
0.454226
0.453927
0.453573
0.453153
0.452657
0.452073
0.451387
0.450582
0.449641
0.448548
0.44729
0.445862
0.444279
0.45553
0.455382
0.455236
0.45512
0.454991
0.454814
0.454583
0.4543
0.453964
0.45357
0.453109
0.452573
0.451949
0.451223
0.450378
0.449396
0.448261
0.446956
0.445476
0.443837
0.455798
0.455536
0.455281
0.455093
0.454922
0.454722
0.454477
0.454184
0.453842
0.453443
0.452978
0.452437
0.451805
0.451068
0.450208
0.449208
0.448049
0.446714
0.445196
0.443512
0.455999
0.455563
0.45522
0.45499
0.454805
0.454609
0.454377
0.454099
0.453771
0.453383
0.452927
0.452389
0.451758
0.451017
0.450149
0.449134
0.447955
0.446594
0.445041
0.443319
0.455866
0.455638
0.455385
0.455175
0.454986
0.454782
0.454541
0.454255
0.453916
0.453517
0.453049
0.452499
0.451853
0.451097
0.45021
0.449175
0.44797
0.446579
0.444991
0.443231
0.455747
0.45564
0.455468
0.455292
0.455119
0.454929
0.454701
0.454424
0.454091
0.453694
0.453223
0.452667
0.452013
0.451244
0.450343
0.449288
0.448061
0.446643
0.445024
0.443231
0.455698
0.455625
0.455482
0.455321
0.455159
0.45498
0.454766
0.454502
0.454179
0.453789
0.453324
0.45277
0.452116
0.451344
0.450436
0.449373
0.448134
0.446702
0.445065
0.443253
0.455698
0.455624
0.455482
0.455321
0.455159
0.45498
0.454766
0.454502
0.454179
0.453789
0.453324
0.45277
0.452116
0.451344
0.450436
0.449373
0.448134
0.446702
0.445064
0.443253
0.455747
0.45564
0.455468
0.455292
0.455119
0.454929
0.454701
0.454424
0.454091
0.453694
0.453223
0.452667
0.452013
0.451244
0.450343
0.449288
0.448061
0.446643
0.445023
0.44323
0.455866
0.455638
0.455385
0.455175
0.454986
0.454782
0.454541
0.454255
0.453916
0.453517
0.453049
0.452499
0.451853
0.451097
0.45021
0.449175
0.44797
0.446579
0.444991
0.443231
0.455999
0.455563
0.45522
0.45499
0.454805
0.454609
0.454376
0.454099
0.453771
0.453383
0.452927
0.452389
0.451758
0.451017
0.450149
0.449134
0.447955
0.446593
0.445041
0.443318
0.455798
0.455536
0.455281
0.455093
0.454922
0.454722
0.454477
0.454184
0.453842
0.453443
0.452978
0.452436
0.451804
0.451067
0.450208
0.449208
0.448048
0.446714
0.445195
0.443511
0.45553
0.455382
0.455236
0.45512
0.454991
0.454814
0.454583
0.4543
0.453964
0.453569
0.453109
0.452573
0.451949
0.451223
0.450377
0.449396
0.44826
0.446956
0.445476
0.443836
0.455204
0.45511
0.455044
0.454966
0.454846
0.454681
0.454475
0.454225
0.453927
0.453573
0.453153
0.452657
0.452073
0.451386
0.450581
0.44964
0.448548
0.44729
0.445861
0.444278
0.454606
0.454822
0.455045
0.455103
0.455036
0.454901
0.45472
0.454495
0.454221
0.453891
0.453496
0.453025
0.452468
0.451808
0.45103
0.450119
0.449057
0.447834
0.446446
0.44491
0.453163
0.453762
0.454254
0.454525
0.454651
0.454689
0.454658
0.454559
0.454392
0.454154
0.453837
0.453435
0.452935
0.452327
0.451594
0.450724
0.4497
0.448514
0.447164
0.445668
0.456745
0.456648
0.456505
0.456399
0.456307
0.456199
0.456059
0.455878
0.455648
0.455359
0.455003
0.454567
0.454041
0.453409
0.452657
0.451768
0.450728
0.449527
0.448164
0.446659
0.457101
0.457009
0.456877
0.456791
0.456728
0.456658
0.456566
0.456445
0.456288
0.456089
0.455843
0.455542
0.455178
0.454744
0.45423
0.45363
0.452939
0.452156
0.45129
0.450361
0.453516
0.454119
0.454624
0.454916
0.455072
0.455148
0.455165
0.455128
0.455037
0.454892
0.454688
0.454422
0.454088
0.453678
0.453186
0.452605
0.451929
0.451158
0.450303
0.449379
0.454956
0.455178
0.455419
0.455501
0.455464
0.455369
0.45524
0.455081
0.454888
0.454655
0.454378
0.454049
0.453661
0.453204
0.452671
0.452051
0.45134
0.450535
0.449644
0.448681
0.455545
0.455465
0.455428
0.455379
0.455293
0.455174
0.455028
0.454852
0.454641
0.454391
0.454095
0.453746
0.453336
0.452856
0.452297
0.451651
0.45091
0.450072
0.449143
0.448135
0.455851
0.455749
0.455654
0.455578
0.455489
0.455367
0.455205
0.455003
0.454761
0.454475
0.45414
0.453751
0.453301
0.45278
0.45218
0.451491
0.450706
0.449822
0.448843
0.447779
0.456073
0.455948
0.455791
0.455659
0.455535
0.45539
0.45521
0.454993
0.454737
0.454438
0.454091
0.453689
0.453225
0.452688
0.452069
0.451359
0.450549
0.449634
0.448619
0.447512
0.456294
0.456066
0.455821
0.45563
0.455471
0.455309
0.455122
0.454902
0.454646
0.454348
0.454001
0.453599
0.453132
0.452591
0.451965
0.451245
0.45042
0.449485
0.448443
0.447306
0.456478
0.456088
0.455763
0.455534
0.455359
0.455194
0.455013
0.454802
0.454554
0.454263
0.453922
0.453522
0.453055
0.452511
0.45188
0.451149
0.450311
0.449359
0.448294
0.447131
0.45637
0.456164
0.455916
0.455703
0.455523
0.455348
0.455157
0.454934
0.454672
0.454366
0.45401
0.453594
0.45311
0.452548
0.451897
0.451146
0.450285
0.449308
0.448217
0.447024
0.456286
0.456182
0.455996
0.455807
0.455638
0.455472
0.455285
0.455062
0.454797
0.454485
0.454118
0.453691
0.453194
0.452617
0.45195
0.451182
0.450303
0.449306
0.448194
0.446982
0.456286
0.456182
0.455996
0.455807
0.455638
0.455472
0.455285
0.455062
0.454797
0.454485
0.454118
0.453691
0.453194
0.452617
0.45195
0.451182
0.450302
0.449306
0.448194
0.446982
0.45637
0.456164
0.455916
0.455703
0.455523
0.455348
0.455157
0.454934
0.454672
0.454366
0.454009
0.453594
0.45311
0.452548
0.451897
0.451146
0.450285
0.449308
0.448216
0.447024
0.456478
0.456088
0.455763
0.455534
0.455359
0.455194
0.455013
0.454802
0.454554
0.454263
0.453922
0.453522
0.453055
0.452511
0.45188
0.451149
0.450311
0.449359
0.448294
0.44713
0.456294
0.456066
0.455821
0.45563
0.455471
0.455309
0.455122
0.454902
0.454646
0.454348
0.454001
0.453599
0.453132
0.452591
0.451965
0.451244
0.450419
0.449485
0.448443
0.447305
0.456073
0.455948
0.455791
0.455659
0.455535
0.45539
0.45521
0.454993
0.454737
0.454438
0.454091
0.453689
0.453224
0.452687
0.452069
0.451358
0.450548
0.449634
0.448618
0.447512
0.455851
0.455749
0.455654
0.455578
0.455489
0.455367
0.455205
0.455003
0.454761
0.454475
0.45414
0.453751
0.4533
0.45278
0.452179
0.451491
0.450706
0.449822
0.448842
0.447779
0.455545
0.455465
0.455428
0.455379
0.455293
0.455174
0.455027
0.454851
0.454641
0.454391
0.454095
0.453746
0.453336
0.452856
0.452297
0.451651
0.450909
0.450071
0.449142
0.448134
0.454956
0.455178
0.455419
0.455501
0.455464
0.455369
0.45524
0.455081
0.454887
0.454655
0.454378
0.454049
0.453661
0.453204
0.45267
0.452051
0.451339
0.450534
0.449643
0.44868
0.453516
0.454119
0.454624
0.454916
0.455071
0.455148
0.455165
0.455128
0.455037
0.454891
0.454688
0.454422
0.454088
0.453678
0.453186
0.452604
0.451928
0.451158
0.450302
0.449378
0.457101
0.457008
0.456877
0.456791
0.456728
0.456658
0.456566
0.456444
0.456288
0.456089
0.455843
0.455542
0.455178
0.454743
0.45423
0.45363
0.452938
0.452155
0.451289
0.45036
0.457486
0.457397
0.457277
0.457212
0.457179
0.457148
0.457107
0.457048
0.456969
0.456865
0.456733
0.456568
0.456368
0.456129
0.455848
0.455523
0.455155
0.45475
0.454319
0.453884
0.453898
0.454504
0.455022
0.455335
0.45552
0.455635
0.455703
0.455728
0.455715
0.455664
0.455575
0.455446
0.455275
0.45506
0.4548
0.454492
0.454138
0.453743
0.453319
0.452885
0.455338
0.455563
0.455819
0.455924
0.455916
0.455859
0.455781
0.455686
0.455571
0.455435
0.455274
0.455085
0.454862
0.454603
0.454303
0.453959
0.453572
0.453145
0.452688
0.452217
0.455925
0.45585
0.455832
0.455808
0.455752
0.455673
0.455579
0.455471
0.455344
0.455194
0.455018
0.454812
0.454572
0.454293
0.453971
0.453604
0.45319
0.452733
0.452242
0.45173
0.456223
0.456134
0.456067
0.456021
0.455966
0.455888
0.455786
0.455658
0.455504
0.455324
0.455114
0.454872
0.454595
0.454277
0.453916