/*--------------------------------*- C++ -*----------------------------------*\
  =========                 |
  \\      /  F ield         | OpenFOAM: The Open Source CFD Toolbox
   \\    /   O peration     | Website:  https://openfoam.org
    \\  /    A nd           | Version:  10
     \\/     M anipulation  |
\*---------------------------------------------------------------------------*/
FoamFile
{
    format      ascii;
    class       volVectorField;
    location    "200";
    object      U;
}
// * * * * * * * * * * * * * * * * * * * * * * * * * * * * * * * * * * * * * //

dimensions      [0 1 -1 0 0 0 0];

internalField   nonuniform List<vector> 
112000
(
(347.753 -14.0364 13.9413)
(350.607 -11.0408 10.842)
(352.161 -9.27172 8.96706)
(352.687 -8.07204 7.66038)
(352.941 -7.17076 6.64879)
(353.31 -6.47467 5.83639)
(353.927 -5.93757 5.17311)
(354.863 -5.5271 4.62144)
(356.202 -5.22209 4.1538)
(358.04 -5.01206 3.75118)
(360.494 -4.89542 3.40034)
(363.701 -4.87798 3.09152)
(367.84 -4.9735 2.81704)
(373.143 -5.20676 2.57051)
(379.93 -5.62042 2.34615)
(388.659 -6.28955 2.1381)
(400.028 -7.3548 1.9394)
(415.208 -9.10385 1.74014)
(435.998 -12.1939 1.51409)
(471.994 -18.2656 1.32888)
(349.187 -15.2774 -3.55769)
(351.353 -11.5883 -5.39827)
(353.25 -9.22414 -5.86036)
(354.837 -7.63319 -5.82561)
(356.364 -6.48442 -5.6483)
(358.028 -5.63256 -5.41475)
(359.924 -5.00505 -5.1504)
(362.117 -4.55531 -4.87497)
(364.677 -4.25256 -4.60303)
(367.691 -4.07864 -4.34239)
(371.269 -4.02551 -4.09651)
(375.542 -4.09389 -3.86713)
(380.68 -4.29362 -3.65569)
(386.909 -4.64626 -3.46408)
(394.537 -5.19134 -3.29523)
(404.01 -6.0002 -3.15397)
(416.006 -7.20758 -3.04845)
(431.67 -9.08894 -2.99274)
(452.74 -12.2843 -3.01728)
(488.877 -18.362 -3.10874)
(348.928 -15.232 0.4845)
(351.262 -11.3877 0.946026)
(353.626 -8.84778 1.36438)
(355.956 -7.12916 1.65357)
(358.273 -5.90204 1.79324)
(360.663 -5.00221 1.82431)
(363.214 -4.34624 1.78853)
(366 -3.88308 1.70978)
(369.101 -3.57891 1.60029)
(372.609 -3.4128 1.46747)
(376.635 -3.37438 1.316)
(381.313 -3.46247 1.14801)
(386.817 -3.68544 0.962981)
(393.372 -4.06359 0.757697)
(401.288 -4.63517 0.525888)
(411.008 -5.46995 0.257357)
(423.208 -6.70052 -0.0637155)
(439.033 -8.59849 -0.462007)
(460.196 -11.8006 -0.981281)
(496.471 -17.8711 -1.64208)
(349.23 -15.1994 -0.0698198)
(352.008 -11.4078 -0.399317)
(354.657 -8.9272 -0.824926)
(357.156 -7.25862 -1.21179)
(359.604 -6.08162 -1.52681)
(362.119 -5.23162 -1.77434)
(364.8 -4.62157 -1.96424)
(367.73 -4.19866 -2.10804)
(370.989 -3.92854 -2.21817)
(374.667 -3.79007 -2.30643)
(378.871 -3.77274 -2.38342)
(383.734 -3.87537 -2.45894)
(389.427 -4.10628 -2.54286)
(396.173 -4.48561 -2.64596)
(404.281 -5.05132 -2.78093)
(414.195 -5.87261 -2.96364)
(426.596 -7.08122 -3.21506)
(442.634 -8.94717 -3.56421)
(464.024 -12.1059 -4.05528)
(500.711 -18.1226 -4.7154)
(349.229 -15.1595 -0.111358)
(351.986 -11.361 -0.249386)
(354.554 -8.86891 -0.355353)
(356.966 -7.16662 -0.403053)
(359.373 -5.94431 -0.409605)
(361.898 -5.04734 -0.402456)
(364.628 -4.39235 -0.399221)
(367.633 -3.92778 -0.408639)
(370.987 -3.62011 -0.435763)
(374.774 -3.44859 -0.484483)
(379.098 -3.40263 -0.558389)
(384.09 -3.48057 -0.661472)
(389.921 -3.68998 -0.798927)
(396.815 -4.05009 -0.977992)
(405.083 -4.59779 -1.20887)
(415.175 -5.40113 -1.50588)
(427.777 -6.59057 -1.88916)
(444.053 -8.43465 -2.38706)
(465.722 -11.5673 -3.04101)
(502.841 -17.5536 -3.88012)
(349.228 -15.1445 -0.108769)
(351.984 -11.3437 -0.229635)
(354.557 -8.85792 -0.347186)
(356.985 -7.16131 -0.460458)
(359.42 -5.94475 -0.572773)
(361.981 -5.05664 -0.687437)
(364.75 -4.4139 -0.804803)
(367.795 -3.96354 -0.923949)
(371.191 -3.67056 -1.045)
(375.025 -3.51306 -1.16988)
(379.401 -3.47953 -1.30211)
(384.453 -3.56749 -1.4467)
(390.352 -3.78382 -1.61027)
(397.326 -4.14715 -1.80151)
(405.688 -4.69382 -2.03175)
(415.892 -5.49128 -2.31581)
(428.629 -6.66938 -2.67317)
(445.075 -8.49578 -3.12957)
(466.955 -11.6035 -3.71981)
(504.437 -17.5594 -4.47131)
(349.226 -15.1372 -0.0898687)
(351.973 -11.3328 -0.18607)
(354.534 -8.84785 -0.27385)
(356.947 -7.15122 -0.351316)
(359.369 -5.93091 -0.419371)
(361.919 -5.03588 -0.4806)
(364.681 -4.38404 -0.537975)
(367.724 -3.92293 -0.594694)
(371.126 -3.61786 -0.65448)
(374.972 -3.44733 -0.721643)
(379.371 -3.4002 -0.800981)
(384.454 -3.47426 -0.897844)
(390.396 -3.67655 -1.01844)
(397.424 -4.0257 -1.17032)
(405.855 -4.55793 -1.36297)
(416.147 -5.34046 -1.60854)
(428.995 -6.50272 -1.92274)
(445.582 -8.31173 -2.32594)
(467.639 -11.3995 -2.84454)
(505.39 -17.3347 -3.50193)
(349.224 -15.1334 -0.06569)
(351.964 -11.3265 -0.135731)
(354.516 -8.84195 -0.199177)
(356.924 -7.14664 -0.25605)
(359.343 -5.92675 -0.309126)
(361.896 -5.03133 -0.36169)
(364.663 -4.3791 -0.416208)
(367.716 -3.91805 -0.474455)
(371.129 -3.61354 -0.538135)
(374.992 -3.44393 -0.609269)
(379.41 -3.39787 -0.690354)
(384.519 -3.47293 -0.78451)
(390.491 -3.67586 -0.895731)
(397.557 -4.02499 -1.0292)
(406.037 -4.55621 -1.1917)
(416.389 -5.33639 -1.39199)
(429.315 -6.49455 -1.64139)
(446 -8.29714 -1.95435)
(468.182 -11.3754 -2.3489)
(506.135 -17.3005 -2.84439)
(349.222 -15.1315 -0.039786)
(351.958 -11.3232 -0.0822497)
(354.505 -8.83866 -0.120676)
(356.907 -7.14414 -0.155007)
(359.325 -5.92457 -0.186904)
(361.877 -5.02863 -0.218191)
(364.645 -4.37521 -0.250037)
(367.699 -3.91249 -0.28324)
(371.116 -3.60584 -0.318763)
(374.984 -3.43359 -0.357989)
(379.41 -3.38436 -0.402749)
(384.53 -3.45573 -0.455335)
(390.518 -3.65444 -0.518585)
(397.607 -3.99885 -0.596043)
(406.116 -4.52479 -0.692168)
(416.506 -5.2991 -0.812566)
(429.482 -6.45067 -0.964267)
(446.232 -8.24565 -1.15604)
(468.498 -11.3146 -1.39818)
(506.574 -17.231 -1.7048)
(349.222 -15.1307 -0.0133215)
(351.955 -11.3218 -0.02756)
(354.499 -8.83725 -0.040463)
(356.9 -7.1431 -0.0519965)
(359.316 -5.92379 -0.0627436)
(361.868 -5.02776 -0.0733888)
(364.637 -4.37401 -0.0844176)
(367.694 -3.91086 -0.0961954)
(371.113 -3.60378 -0.10914)
(374.985 -3.43109 -0.123789)
(379.417 -3.38141 -0.140796)
(384.544 -3.4523 -0.160928)
(390.542 -3.6505 -0.185095)
(397.642 -3.99428 -0.214417)
(406.167 -4.51944 -0.2503)
(416.577 -5.29269 -0.294519)
(429.578 -6.4428 -0.349312)
(446.36 -8.23568 -0.417482)
(468.669 -11.3014 -0.502191)
(506.807 -17.2152 -0.60915)
(349.222 -15.1307 0.0132875)
(351.955 -11.3218 0.0274873)
(354.499 -8.83725 0.0403507)
(356.9 -7.1431 0.0518414)
(359.316 -5.92379 0.0625418)
(361.868 -5.02776 0.0731348)
(364.637 -4.37401 0.0841044)
(367.694 -3.91086 0.0958145)
(371.113 -3.60378 0.10868)
(374.985 -3.43109 0.123238)
(379.417 -3.38141 0.140139)
(384.544 -3.4523 0.160146)
(390.542 -3.6505 0.184167)
(397.642 -3.99428 0.213318)
(406.167 -4.51944 0.248998)
(416.577 -5.29269 0.292979)
(429.579 -6.44279 0.34749)
(446.361 -8.23568 0.415327)
(468.669 -11.3014 0.499644)
(506.807 -17.2152 0.606136)
(349.222 -15.1315 0.0397528)
(351.958 -11.3232 0.0821788)
(354.505 -8.83867 0.120567)
(356.907 -7.14414 0.154856)
(359.325 -5.92457 0.186707)
(361.877 -5.02863 0.217943)
(364.645 -4.37521 0.249731)
(367.699 -3.91249 0.282868)
(371.116 -3.60584 0.318314)
(374.984 -3.43359 0.35745)
(379.41 -3.38436 0.402106)
(384.53 -3.45573 0.45457)
(390.518 -3.65444 0.517677)
(397.607 -3.99884 0.594968)
(406.116 -4.52479 0.690895)
(416.507 -5.2991 0.811059)
(429.483 -6.45066 0.962484)
(446.233 -8.24564 1.15394)
(468.499 -11.3146 1.39569)
(506.575 -17.2309 1.70185)
(349.224 -15.1334 0.0656584)
(351.964 -11.3265 0.135663)
(354.516 -8.84195 0.199073)
(356.924 -7.14664 0.255906)
(359.343 -5.92675 0.308938)
(361.896 -5.03133 0.361454)
(364.663 -4.3791 0.415917)
(367.716 -3.91805 0.4741)
(371.129 -3.61354 0.537707)
(374.992 -3.44393 0.608755)
(379.41 -3.39787 0.68974)
(384.519 -3.47293 0.783781)
(390.491 -3.67586 0.894866)
(397.558 -4.02499 1.02818)
(406.038 -4.5562 1.19048)
(416.39 -5.33638 1.39055)
(429.315 -6.49453 1.63969)
(446.001 -8.29712 1.95234)
(468.183 -11.3753 2.34653)
(506.136 -17.3005 2.84158)
(349.226 -15.1372 0.0898395)
(351.973 -11.3328 0.186008)
(354.534 -8.84785 0.273754)
(356.947 -7.15122 0.351183)
(359.369 -5.93091 0.419197)
(361.919 -5.03588 0.48038)
(364.681 -4.38404 0.537704)
(367.724 -3.92293 0.594363)
(371.126 -3.61786 0.65408)
(374.972 -3.44733 0.721163)
(379.371 -3.40019 0.800408)
(384.455 -3.47425 0.897162)
(390.396 -3.67654 1.01763)
(397.424 -4.02569 1.16936)
(405.856 -4.55791 1.36184)
(416.147 -5.34044 1.6072)
(428.996 -6.5027 1.92115)
(445.583 -8.31169 2.32405)
(467.64 -11.3994 2.84231)
(505.392 -17.3346 3.4993)
(349.228 -15.1445 0.108743)
(351.985 -11.3437 0.229579)
(354.557 -8.85792 0.347099)
(356.985 -7.16131 0.460339)
(359.42 -5.94475 0.572618)
(361.981 -5.05664 0.687241)
(364.75 -4.41389 0.804561)
(367.795 -3.96353 0.923654)
(371.191 -3.67055 1.04464)
(375.025 -3.51306 1.16945)
(379.401 -3.47952 1.3016)
(384.454 -3.56748 1.44609)
(390.353 -3.78381 1.60955)
(397.327 -4.14714 1.80066)
(405.689 -4.6938 2.03075)
(415.893 -5.49126 2.31462)
(428.63 -6.66935 2.67176)
(445.076 -8.49574 3.1279)
(466.957 -11.6035 3.71784)
(504.439 -17.5593 4.46897)
(349.229 -15.1595 0.111336)
(351.986 -11.361 0.249339)
(354.554 -8.86891 0.355279)
(356.966 -7.16662 0.40295)
(359.373 -5.94431 0.40947)
(361.899 -5.04733 0.402285)
(364.628 -4.39234 0.399008)
(367.634 -3.92778 0.408377)
(370.987 -3.62011 0.435446)
(374.774 -3.44858 0.484103)
(379.098 -3.40262 0.557937)
(384.091 -3.48055 0.660936)
(389.922 -3.68996 0.798292)
(396.816 -4.05007 0.977241)
(405.084 -4.59776 1.20798)
(415.176 -5.4011 1.50483)
(427.778 -6.59053 1.88792)
(444.054 -8.43459 2.38559)
(465.724 -11.5673 3.03927)
(502.843 -17.5535 3.87805)
(349.23 -15.1994 0.0698007)
(352.008 -11.4078 0.399278)
(354.657 -8.9272 0.824867)
(357.156 -7.25862 1.21172)
(359.604 -6.08162 1.52671)
(362.119 -5.23161 1.77421)
(364.8 -4.62157 1.96408)
(367.73 -4.19866 2.10784)
(370.989 -3.92854 2.21792)
(374.667 -3.79006 2.30614)
(378.872 -3.77273 2.38307)
(383.735 -3.87536 2.45853)
(389.427 -4.10627 2.54237)
(396.174 -4.4856 2.64539)
(404.282 -5.0513 2.78025)
(414.196 -5.87258 2.96283)
(426.597 -7.08118 3.2141)
(442.636 -8.94711 3.56307)
(464.027 -12.1058 4.05392)
(500.714 -18.1224 4.71378)
(348.928 -15.232 -0.484513)
(351.262 -11.3877 -0.946055)
(353.626 -8.84778 -1.36443)
(355.956 -7.12916 -1.65363)
(358.273 -5.90204 -1.79332)
(360.663 -5.00221 -1.82441)
(363.214 -4.34623 -1.78866)
(366 -3.88307 -1.70994)
(369.102 -3.57889 -1.60049)
(372.61 -3.41279 -1.46771)
(376.635 -3.37436 -1.31629)
(381.314 -3.46245 -1.14835)
(386.818 -3.68542 -0.963374)
(393.373 -4.06356 -0.758161)
(401.289 -4.63514 -0.526436)
(411.009 -5.46991 -0.258004)
(423.21 -6.70047 0.0629512)
(439.035 -8.59842 0.461103)
(460.198 -11.8005 0.980205)
(496.474 -17.8709 1.64079)
(349.187 -15.2774 3.55769)
(351.353 -11.5883 5.39827)
(353.25 -9.22414 5.86035)
(354.837 -7.63319 5.82558)
(356.364 -6.48442 5.64827)
(358.028 -5.63255 5.41471)
(359.925 -5.00504 5.15034)
(362.117 -4.5553 4.87489)
(364.677 -4.25254 4.60294)
(367.692 -4.07863 4.34228)
(371.269 -4.02549 4.09638)
(375.542 -4.09387 3.86697)
(380.681 -4.29359 3.6555)
(386.91 -4.64623 3.46385)
(394.539 -5.1913 3.29495)
(404.012 -6.00015 3.15365)
(416.008 -7.20752 3.04806)
(431.672 -9.08887 2.99227)
(452.742 -12.2842 3.01672)
(488.881 -18.3619 3.10804)
(347.753 -14.0364 -13.9413)
(350.607 -11.0408 -10.842)
(352.161 -9.27171 -8.96705)
(352.687 -8.07202 -7.66038)
(352.941 -7.17075 -6.64878)
(353.31 -6.47465 -5.83639)
(353.927 -5.93754 -5.17312)
(354.864 -5.52707 -4.62145)
(356.202 -5.22207 -4.15381)
(358.041 -5.01203 -3.7512)
(360.494 -4.89539 -3.40037)
(363.702 -4.87794 -3.09155)
(367.841 -4.97346 -2.81708)
(373.144 -5.20672 -2.57056)
(379.931 -5.62037 -2.34621)
(388.66 -6.28949 -2.13818)
(400.03 -7.35473 -1.93951)
(415.21 -9.10377 -1.74026)
(436.001 -12.1938 -1.51425)
(471.998 -18.2654 -1.3291)
(349.171 3.26071 15.1715)
(351.29 4.77348 11.3628)
(353.12 4.9123 8.87472)
(354.621 4.54161 7.15266)
(356.046 4.00389 5.86216)
(357.591 3.37233 4.85364)
(359.351 2.65806 4.04942)
(361.387 1.86507 3.39707)
(363.77 0.989542 2.85858)
(366.587 0.016472 2.40614)
(369.937 -1.08021 2.01984)
(373.944 -2.33868 1.68442)
(378.761 -3.81191 1.38779)
(384.589 -5.57542 1.11986)
(391.69 -7.7422 0.871543)
(400.422 -10.4911 0.633971)
(411.274 -14.123 0.397499)
(424.934 -19.1793 0.149966)
(442.13 -26.7199 -0.121818)
(465.899 -38.6776 -0.36921)
(402.871 1.64659 -1.93243)
(399.481 2.49186 -3.09859)
(397.106 2.42273 -3.3658)
(395.693 1.93858 -3.23802)
(395.001 1.32102 -3.00512)
(394.902 0.651183 -2.75849)
(395.336 -0.0599998 -2.52148)
(396.284 -0.816446 -2.30493)
(397.755 -1.62914 -2.11548)
(399.786 -2.51752 -1.95586)
(402.444 -3.51038 -1.82762)
(405.825 -4.64644 -1.73157)
(410.064 -5.97818 -1.66877)
(415.341 -7.5793 -1.64143)
(421.902 -9.55885 -1.65372)
(430.088 -12.088 -1.71284)
(440.375 -15.4537 -1.83041)
(453.439 -20.1735 -2.02552)
(469.993 -27.2868 -2.31953)
(493.009 -38.5787 -2.67999)
(405.321 0.702399 0.373255)
(403.916 1.15582 0.638635)
(403.189 1.05059 0.814789)
(403.183 0.615843 0.894903)
(403.648 0.0685648 0.886275)
(404.459 -0.513967 0.815084)
(405.601 -1.12567 0.707862)
(407.102 -1.7785 0.580547)
(409.008 -2.48897 0.440258)
(411.382 -3.27878 0.289756)
(414.31 -4.17652 0.129484)
(417.9 -5.21987 -0.0421825)
(422.295 -6.45993 -0.228981)
(427.684 -7.96855 -0.436943)
(434.317 -9.8519 -0.674897)
(442.539 -12.2767 -0.95531)
(452.828 -15.5236 -1.2956)
(465.864 -20.1003 -1.72057)
(482.35 -27.0399 -2.26264)
(505.256 -38.0784 -2.91147)
(405.725 0.700063 -0.145854)
(404.976 1.00994 -0.37089)
(404.894 0.776114 -0.643583)
(405.44 0.230791 -0.887875)
(406.4 -0.421004 -1.07296)
(407.673 -1.09337 -1.20479)
(409.249 -1.77197 -1.29785)
(411.155 -2.46756 -1.36574)
(413.441 -3.19891 -1.42037)
(416.169 -3.99044 -1.47202)
(419.425 -4.87333 -1.52963)
(423.32 -5.88755 -1.60139)
(427.998 -7.08568 -1.6957)
(433.649 -8.54018 -1.82201)
(440.527 -10.357 -1.9918)
(448.978 -12.7015 -2.2197)
(459.486 -15.852 -2.52501)
(472.739 -20.3112 -2.93392)
(489.439 -27.1077 -3.48176)
(512.63 -37.9645 -4.17456)
(405.713 0.815414 -0.141864)
(404.999 1.09819 -0.261781)
(404.999 0.823735 -0.355155)
(405.665 0.27342 -0.423577)
(406.791 -0.363282 -0.472011)
(408.272 -1.01432 -0.511675)
(410.086 -1.66891 -0.552708)
(412.248 -2.33871 -0.601347)
(414.795 -3.04347 -0.661566)
(417.787 -3.80828 -0.736826)
(421.305 -4.66435 -0.830889)
(425.459 -5.65108 -0.948331)
(430.393 -6.82008 -1.09509)
(436.299 -8.24249 -1.27911)
(443.432 -10.0226 -1.51104)
(452.146 -12.3239 -1.80524)
(462.928 -15.422 -2.18103)
(476.478 -19.8161 -2.6644)
(493.5 -26.5303 -3.28992)
(517.103 -37.2813 -4.06958)
(405.703 0.864797 -0.117523)
(404.978 1.14167 -0.227635)
(404.994 0.838134 -0.324732)
(405.702 0.267068 -0.418685)
(406.886 -0.38351 -0.512675)
(408.44 -1.04902 -0.606098)
(410.338 -1.71983 -0.698619)
(412.596 -2.40545 -0.791078)
(415.25 -3.12357 -0.885534)
(418.358 -3.89797 -0.985253)
(422.003 -4.75889 -1.09464)
(426.294 -5.74495 -1.21926)
(431.376 -6.907 -1.36604)
(437.441 -8.31548 -1.54373)
(444.749 -10.0738 -1.76343)
(453.656 -12.3444 -2.03944)
(464.656 -15.4014 -2.39028)
(478.458 -19.7418 -2.84004)
(495.773 -26.3873 -3.41993)
(519.788 -37.0535 -4.14478)
(405.696 0.887822 -0.0907731)
(404.955 1.17134 -0.179273)
(404.96 0.859991 -0.254817)
(405.666 0.28312 -0.322123)
(406.855 -0.365662 -0.385794)
(408.42 -1.02439 -0.447462)
(410.338 -1.68592 -0.508228)
(412.623 -2.36045 -0.570143)
(415.316 -3.06585 -0.63617)
(418.474 -3.82616 -0.709873)
(422.178 -4.67188 -0.795336)
(426.54 -5.64171 -0.897314)
(431.705 -6.7864 -1.02156)
(437.867 -8.17606 -1.17525)
(445.288 -9.91358 -1.36754)
(454.326 -12.1606 -1.61021)
(465.483 -15.1903 -1.91851)
(479.472 -19.4982 -2.31213)
(497.011 -26.1044 -2.81625)
(521.338 -36.7244 -3.44487)
(405.692 0.900042 -0.0643235)
(404.94 1.18999 -0.128453)
(404.934 0.875834 -0.183773)
(405.635 0.293794 -0.23268)
(406.826 -0.357408 -0.279964)
(408.396 -1.01602 -0.328421)
(410.322 -1.67665 -0.379118)
(412.621 -2.35031 -0.432971)
(415.331 -3.05485 -0.491441)
(418.512 -3.81402 -0.556551)
(422.245 -4.65802 -0.63085)
(426.643 -5.62523 -0.717528)
(431.852 -6.76606 -0.820648)
(438.068 -8.15016 -0.945449)
(445.554 -9.87998 -1.09871)
(454.674 -12.1166 -1.28917)
(465.93 -15.1327 -1.52809)
(480.044 -19.423 -1.82997)
(497.737 -26.0068 -2.21307)
(522.286 -36.6021 -2.68988)
(405.69 0.906443 -0.0383152)
(404.931 1.20055 -0.076977)
(404.918 0.885697 -0.110729)
(405.615 0.300828 -0.140355)
(406.805 -0.351894 -0.1687)
(408.376 -1.00988 -0.197752)
(410.305 -1.66848 -0.228198)
(412.608 -2.33928 -0.260448)
(415.324 -3.04024 -0.295312)
(418.513 -3.79504 -0.334096)
(422.26 -4.63386 -0.378505)
(426.675 -5.59509 -0.430659)
(431.906 -6.72912 -0.493204)
(438.151 -8.10559 -0.569486)
(445.675 -9.82685 -0.663764)
(454.841 -12.0539 -0.781465)
(466.158 -15.0592 -0.9295)
(480.348 -19.3371 -1.11669)
(498.136 -25.9067 -1.35395)
(522.821 -36.4885 -1.65017)
(405.689 0.909209 -0.0127287)
(404.928 1.20531 -0.0256476)
(404.91 0.890415 -0.0370135)
(405.605 0.304324 -0.0469826)
(406.794 -0.349255 -0.0564893)
(408.367 -1.00718 -0.0662831)
(410.297 -1.66508 -0.0766708)
(412.601 -2.33492 -0.087828)
(415.32 -3.03479 -0.100056)
(418.514 -3.78837 -0.113817)
(422.266 -4.6258 -0.129702)
(426.689 -5.58544 -0.148418)
(431.931 -6.71762 -0.170839)
(438.189 -8.09191 -0.198061)
(445.73 -9.81059 -0.231482)
(454.919 -12.0345 -0.27289)
(466.264 -15.036 -0.324569)
(480.49 -19.3092 -0.38945)
(498.324 -25.8731 -0.471141)
(523.076 -36.4505 -0.573152)
(405.689 0.909209 0.0126979)
(404.928 1.20531 0.0255831)
(404.91 0.890415 0.0369138)
(405.605 0.304325 0.0468447)
(406.794 -0.349254 0.056309)
(408.367 -1.00718 0.0660552)
(410.297 -1.66508 0.0763888)
(412.601 -2.33492 0.0874836)
(415.32 -3.03479 0.0996388)
(418.514 -3.78837 0.113316)
(422.267 -4.6258 0.129102)
(426.689 -5.58544 0.147703)
(431.931 -6.71762 0.169988)
(438.189 -8.09191 0.19705)
(445.731 -9.81058 0.230282)
(454.919 -12.0345 0.271465)
(466.264 -15.036 0.322877)
(480.49 -19.3092 0.38744)
(498.324 -25.8731 0.468752)
(523.077 -36.4504 0.570311)
(405.69 0.906443 0.038285)
(404.931 1.20055 0.076914)
(404.918 0.885698 0.110631)
(405.615 0.300829 0.14022)
(406.805 -0.351892 0.168524)
(408.376 -1.00988 0.197529)
(410.305 -1.66848 0.227923)
(412.608 -2.33928 0.26011)
(415.324 -3.04023 0.294904)
(418.514 -3.79503 0.333605)
(422.26 -4.63385 0.377918)
(426.675 -5.59508 0.429959)
(431.906 -6.72911 0.492371)
(438.151 -8.10557 0.568497)
(445.675 -9.82684 0.662589)
(454.842 -12.0539 0.78007)
(466.158 -15.0592 0.927845)
(480.348 -19.3371 1.11473)
(498.137 -25.9067 1.35162)
(522.822 -36.4885 1.6474)
(405.692 0.900042 0.0642948)
(404.94 1.18999 0.128393)
(404.934 0.875835 0.18368)
(405.635 0.293796 0.232552)
(406.826 -0.357406 0.279796)
(408.396 -1.01601 0.328209)
(410.323 -1.67664 0.378855)
(412.621 -2.35031 0.432649)
(415.331 -3.05484 0.49105)
(418.512 -3.81401 0.556081)
(422.246 -4.65801 0.630289)
(426.643 -5.62522 0.716859)
(431.852 -6.76604 0.819853)
(438.068 -8.15014 0.944505)
(445.555 -9.87995 1.09759)
(454.674 -12.1166 1.28784)
(465.931 -15.1327 1.52651)
(480.045 -19.4229 1.82809)
(497.737 -26.0067 2.21084)
(522.287 -36.602 2.68723)
(405.696 0.887823 0.0907464)
(404.955 1.17134 0.179217)
(404.96 0.859994 0.254731)
(405.666 0.283124 0.322004)
(406.855 -0.365658 0.385638)
(408.42 -1.02438 0.447264)
(410.338 -1.68591 0.507983)
(412.624 -2.36044 0.569842)
(415.316 -3.06584 0.635805)
(418.474 -3.82615 0.709435)
(422.179 -4.67186 0.794811)
(426.541 -5.64169 0.89669)
(431.706 -6.78638 1.02082)
(437.867 -8.17603 1.17437)
(445.288 -9.91354 1.3665)
(454.327 -12.1605 1.60897)
(465.484 -15.1902 1.91703)
(479.473 -19.4981 2.31038)
(497.013 -26.1043 2.81416)
(521.339 -36.7242 3.4424)
(405.703 0.864798 0.117499)
(404.978 1.14168 0.227585)
(404.994 0.838137 0.324655)
(405.702 0.267072 0.418578)
(406.886 -0.383505 0.512535)
(408.44 -1.04901 0.605921)
(410.338 -1.71982 0.698399)
(412.596 -2.40544 0.790808)
(415.25 -3.12355 0.885206)
(418.358 -3.89795 0.984859)
(422.003 -4.75887 1.09417)
(426.294 -5.74492 1.2187)
(431.376 -6.90697 1.36538)
(437.442 -8.31545 1.54294)
(444.75 -10.0738 1.76249)
(453.657 -12.3443 2.03832)
(464.658 -15.4014 2.38895)
(478.46 -19.7417 2.83847)
(495.774 -26.3872 3.41805)
(519.79 -37.0533 4.14255)
(405.713 0.815416 0.141843)
(404.999 1.09819 0.261738)
(404.999 0.823739 0.355089)
(405.665 0.273426 0.423485)
(406.791 -0.363275 0.47189)
(408.273 -1.01431 0.51152)
(410.086 -1.6689 0.552515)
(412.248 -2.3387 0.601109)
(414.795 -3.04345 0.661278)
(417.787 -3.80826 0.73648)
(421.305 -4.66432 0.830477)
(425.459 -5.65105 0.947841)
(430.394 -6.82003 1.09451)
(436.299 -8.24244 1.27842)
(443.433 -10.0225 1.51023)
(452.147 -12.3238 1.80427)
(462.93 -15.4219 2.17988)
(476.48 -19.816 2.66302)
(493.502 -26.5301 3.28829)
(517.106 -37.2811 4.06764)
(405.725 0.700065 0.145837)
(404.976 1.00994 0.370856)
(404.894 0.776119 0.643531)
(405.44 0.230798 0.887803)
(406.4 -0.420995 1.07287)
(407.673 -1.09335 1.20466)
(409.249 -1.77195 1.2977)
(411.156 -2.46755 1.36555)
(413.441 -3.19889 1.42013)
(416.169 -3.99041 1.47174)
(419.426 -4.8733 1.5293)
(423.321 -5.88752 1.601)
(427.999 -7.08563 1.69523)
(433.65 -8.54013 1.82145)
(440.528 -10.3569 1.99114)
(448.979 -12.7014 2.21891)
(459.488 -15.8519 2.52407)
(472.741 -20.311 2.93281)
(489.441 -27.1075 3.48043)
(512.633 -37.9643 4.17298)
(405.321 0.7024 -0.373268)
(403.916 1.15582 -0.63866)
(403.189 1.05059 -0.814829)
(403.183 0.615851 -0.894959)
(403.648 0.0685762 -0.886348)
(404.459 -0.513951 -0.815179)
(405.602 -1.12565 -0.707984)
(407.103 -1.77848 -0.5807)
(409.008 -2.48894 -0.440444)
(411.383 -3.27874 -0.289979)
(414.31 -4.17648 -0.129747)
(417.9 -5.21983 0.0418725)
(422.296 -6.45988 0.228615)
(427.685 -7.96849 0.436511)
(434.318 -9.85182 0.674386)
(442.54 -12.2766 0.954705)
(452.83 -15.5235 1.29488)
(465.866 -20.1002 1.71971)
(482.353 -27.0397 2.26162)
(505.26 -38.0781 2.91025)
(402.871 1.64659 1.93242)
(399.481 2.49187 3.09858)
(397.106 2.42274 3.36578)
(395.693 1.93859 3.23799)
(395.001 1.32104 3.00507)
(394.902 0.651201 2.75844)
(395.336 -0.0599749 2.52141)
(396.284 -0.816415 2.30483)
(397.756 -1.62911 2.11536)
(399.787 -2.51749 1.95572)
(402.444 -3.51034 1.82746)
(405.826 -4.64639 1.73138)
(410.065 -5.97812 1.66855)
(415.342 -7.57924 1.64116)
(421.903 -9.55877 1.65341)
(430.089 -12.0879 1.71247)
(440.377 -15.4536 1.82997)
(453.441 -20.1733 2.025)
(469.996 -27.2866 2.31891)
(493.013 -38.5784 2.67922)
(349.171 3.26071 -15.1715)
(351.29 4.77348 -11.3628)
(353.12 4.91231 -8.87472)
(354.621 4.54162 -7.15267)
(356.046 4.00391 -5.86217)
(357.591 3.37236 -4.85365)
(359.351 2.65809 -4.04944)
(361.387 1.86511 -3.3971)
(363.77 0.989584 -2.85861)
(366.587 0.016518 -2.40618)
(369.938 -1.08016 -2.0199)
(373.945 -2.33863 -1.68448)
(378.762 -3.81184 -1.38787)
(384.59 -5.57534 -1.11995)
(391.691 -7.74211 -0.871653)
(400.423 -10.491 -0.634103)
(411.276 -14.1229 -0.397656)
(424.937 -19.1792 -0.150152)
(442.133 -26.7197 0.121595)
(465.902 -38.6773 0.368929)
(348.918 -0.941194 15.1355)
(351.203 -1.91581 11.178)
(353.483 -2.86026 8.51701)
(355.691 -3.69895 6.66679)
(357.846 -4.42754 5.2945)
(360.032 -5.10466 4.23225)
(362.331 -5.79227 3.3921)
(364.812 -6.5386 2.71749)
(367.547 -7.38592 2.16784)
(370.615 -8.37862 1.71382)
(374.118 -9.5679 1.33289)
(378.162 -11.0173 1.00791)
(382.877 -12.8086 0.725345)
(388.426 -15.0525 0.474074)
(395.006 -17.9044 0.244495)
(402.866 -21.5941 0.0273488)
(412.309 -26.4725 -0.187513)
(423.687 -33.0894 -0.41247)
(437.243 -42.328 -0.661472)
(454.196 -55.4086 -0.902635)
(405.305 -0.806248 -0.981561)
(403.859 -1.53932 -1.74486)
(403.068 -2.19991 -1.96585)
(402.976 -2.79543 -1.87964)
(403.334 -3.3479 -1.71137)
(404.016 -3.90038 -1.54819)
(405.004 -4.4989 -1.40809)
(406.323 -5.18258 -1.29356)
(408.014 -5.98668 -1.2058)
(410.134 -6.94907 -1.14472)
(412.752 -8.11497 -1.1103)
(415.965 -9.54058 -1.10467)
(419.893 -11.2996 -1.13005)
(424.688 -13.4931 -1.18946)
(430.542 -16.2656 -1.28773)
(437.697 -19.8313 -1.43277)
(446.455 -24.5175 -1.63682)
(457.179 -30.8418 -1.91862)
(470.126 -39.6428 -2.29925)
(486.528 -51.9936 -2.74921)
(433.692 -1.6817 1.26327)
(430.593 -2.66504 1.79553)
(428.17 -3.23449 1.89716)
(426.697 -3.66105 1.82537)
(425.939 -4.04422 1.66425)
(425.694 -4.43719 1.44967)
(425.892 -4.88756 1.20977)
(426.529 -5.43694 0.963513)
(427.63 -6.12153 0.719685)
(429.234 -6.97741 0.48012)
(431.397 -8.04614 0.24301)
(434.206 -9.38001 0.00463197)
(437.77 -11.0487 -0.240841)
(442.233 -13.1489 -0.501316)
(447.783 -15.819 -0.787329)
(454.659 -19.2647 -1.11271)
(463.163 -23.8031 -1.49537)
(473.662 -29.9378 -1.95925)
(486.416 -38.4876 -2.53284)
(502.667 -50.4534 -3.20306)
(436.184 -2.32568 -0.177388)
(435.197 -3.52935 -0.29125)
(434.353 -4.09081 -0.451596)
(433.93 -4.46274 -0.606771)
(433.891 -4.79629 -0.718108)
(434.165 -5.14568 -0.793192)
(434.744 -5.55311 -0.849321)
(435.668 -6.05806 -0.898897)
(436.985 -6.69611 -0.950421)
(438.758 -7.50256 -1.01086)
(441.06 -8.51788 -1.08628)
(443.982 -9.79318 -1.18254)
(447.643 -11.3964 -1.30636)
(452.19 -13.4218 -1.466)
(457.816 -16.0049 -1.67192)
(464.765 -19.3476 -1.93753)
(473.345 -23.7622 -2.28047)
(483.935 -29.7449 -2.72403)
(496.796 -38.1051 -3.29747)
(513.216 -49.8167 -3.99885)
(436.25 -2.24374 -0.228855)
(435.545 -3.50841 -0.294005)
(435.187 -4.13743 -0.311662)
(435.295 -4.55052 -0.33732)
(435.776 -4.90872 -0.367473)
(436.554 -5.27078 -0.400647)
(437.613 -5.67888 -0.442261)
(438.983 -6.17321 -0.496834)
(440.71 -6.79124 -0.566773)
(442.858 -7.57006 -0.654101)
(445.502 -8.55118 -0.761551)
(448.74 -9.78593 -0.893027)
(452.694 -11.3419 -1.054)
(457.519 -13.3123 -1.25199)
(463.411 -15.831 -1.49708)
(470.622 -19.0976 -1.80269)
(479.469 -23.421 -2.18649)
(490.342 -29.2921 -2.67134)
(503.506 -37.5138 -3.28591)
(520.297 -49.0507 -4.03362)
(436.213 -2.14689 -0.154354)
(435.5 -3.44288 -0.249839)
(435.239 -4.13246 -0.311824)
(435.51 -4.58369 -0.380501)
(436.177 -4.96258 -0.459358)
(437.155 -5.33923 -0.540646)
(438.427 -5.7594 -0.621481)
(440.02 -6.26288 -0.703313)
(441.977 -6.88627 -0.789065)
(444.357 -7.66594 -0.882364)
(447.237 -8.64263 -0.987669)
(450.713 -9.86679 -1.11046)
(454.909 -11.405 -1.25749)
(459.98 -13.3493 -1.43715)
(466.128 -15.832 -1.66001)
(473.608 -19.051 -1.93945)
(482.744 -23.3125 -2.29249)
(493.936 -29.1039 -2.74054)
(507.454 -37.2238 -3.31)
(524.696 -48.6345 -4.00734)
(436.196 -2.1021 -0.106855)
(435.451 -3.39936 -0.194501)
(435.185 -4.11252 -0.254762)
(435.484 -4.57941 -0.307543)
(436.196 -4.96246 -0.36311)
(437.23 -5.33793 -0.421017)
(438.572 -5.75511 -0.480037)
(440.249 -6.25417 -0.541543)
(442.305 -6.87125 -0.60845)
(444.797 -7.6424 -0.684191)
(447.802 -8.60814 -0.772598)
(451.414 -9.81854 -0.878168)
(455.758 -11.3397 -1.00642)
(460.992 -13.263 -1.16427)
(467.318 -15.7198 -1.36055)
(474.996 -18.9068 -1.60646)
(484.355 -23.1283 -1.91632)
(495.801 -28.8697 -2.3081)
(509.613 -36.9262 -2.80386)
(527.233 -48.2593 -3.41057)
(436.188 -2.07974 -0.0719679)
(435.421 -3.37008 -0.137293)
(435.14 -4.09195 -0.185226)
(435.44 -4.56871 -0.224872)
(436.164 -4.95603 -0.265957)
(437.216 -5.33167 -0.311184)
(438.582 -5.74752 -0.359935)
(440.289 -6.24475 -0.412211)
(442.383 -6.85945 -0.469327)
(444.922 -7.62743 -0.533357)
(447.982 -8.58899 -0.60687)
(451.66 -9.79391 -0.693043)
(456.08 -11.3079 -0.795923)
(461.402 -13.2218 -0.920708)
(467.831 -15.6664 -1.07407)
(475.629 -18.8375 -1.26453)
(485.129 -23.0386 -1.50289)
(496.745 -28.7536 -1.80272)
(510.758 -36.7764 -2.18059)
(528.647 -48.069 -2.64339)
(436.184 -2.06806 -0.0417538)
(435.406 -3.35256 -0.0812771)
(435.113 -4.07758 -0.11166)
(435.409 -4.56016 -0.136316)
(436.136 -4.95059 -0.161022)
(437.194 -5.32612 -0.188287)
(438.566 -5.74009 -0.218006)
(440.283 -6.23459 -0.249977)
(442.39 -6.84589 -0.284862)
(444.947 -7.6097 -0.323978)
(448.03 -8.56624 -0.369017)
(451.737 -9.76524 -0.422039)
(456.194 -11.2723 -0.485622)
(461.56 -13.1782 -0.563035)
(468.043 -15.6135 -0.65844)
(475.907 -18.7736 -0.777119)
(485.488 -22.9618 -0.925745)
(497.204 -28.6614 -1.11268)
(511.337 -36.6657 -1.34802)
(529.389 -47.938 -1.63679)
(436.182 -2.06298 -0.0137152)
(435.399 -3.34449 -0.0269259)
(435.101 -4.07043 -0.0373285)
(435.394 -4.55561 -0.0457434)
(436.122 -4.94767 -0.0540346)
(437.181 -5.32325 -0.0631982)
(438.556 -5.73633 -0.0733054)
(440.276 -6.22955 -0.0843021)
(442.388 -6.83932 -0.0964085)
(444.951 -7.60134 -0.110076)
(448.043 -8.55578 -0.125881)
(451.762 -9.75237 -0.144513)
(456.233 -11.2567 -0.166827)
(461.618 -13.1593 -0.193907)
(468.124 -15.5909 -0.227136)
(476.018 -18.7466 -0.268279)
(485.635 -22.9296 -0.319574)
(497.396 -28.6231 -0.383836)
(511.585 -36.6201 -0.464454)
(529.714 -47.8854 -0.563413)
(436.182 -2.06298 0.0136859)
(435.399 -3.34449 0.0268647)
(435.101 -4.07043 0.037234)
(435.394 -4.55561 0.0456129)
(436.122 -4.94767 0.053864)
(437.181 -5.32325 0.0629825)
(438.556 -5.73633 0.0730382)
(440.276 -6.22955 0.0839755)
(442.388 -6.83932 0.0960127)
(444.951 -7.60134 0.109599)
(448.043 -8.55578 0.12531)
(451.762 -9.75236 0.143832)
(456.233 -11.2567 0.166015)
(461.618 -13.1593 0.19294)
(468.124 -15.5909 0.225986)
(476.018 -18.7466 0.266911)
(485.635 -22.9296 0.317945)
(497.396 -28.6231 0.381895)
(511.585 -36.6201 0.462138)
(529.715 -47.8853 0.560651)
(436.184 -2.06805 0.0417252)
(435.406 -3.35256 0.0812174)
(435.113 -4.07758 0.111567)
(435.409 -4.56016 0.136188)
(436.136 -4.95059 0.160856)
(437.194 -5.32612 0.188076)
(438.566 -5.74009 0.217745)
(440.283 -6.23459 0.249657)
(442.39 -6.84588 0.284475)
(444.947 -7.60969 0.323512)
(448.03 -8.56623 0.368458)
(451.737 -9.76523 0.421372)
(456.194 -11.2723 0.484828)
(461.56 -13.1782 0.562089)
(468.043 -15.6135 0.657315)
(475.907 -18.7736 0.77578)
(485.489 -22.9617 0.924151)
(497.204 -28.6613 1.11078)
(511.338 -36.6656 1.34575)
(529.39 -47.9379 1.63409)
(436.188 -2.07973 0.0719406)
(435.421 -3.37008 0.137236)
(435.14 -4.09195 0.185138)
(435.44 -4.5687 0.22475)
(436.164 -4.95602 0.265799)
(437.216 -5.33167 0.310983)
(438.582 -5.74752 0.359685)
(440.289 -6.24474 0.411905)
(442.383 -6.85944 0.468956)
(444.922 -7.62742 0.532911)
(447.982 -8.58897 0.606335)
(451.66 -9.79389 0.692405)
(456.081 -11.3079 0.795163)
(461.403 -13.2217 0.919805)
(467.831 -15.6664 1.073)