/*--------------------------------*- C++ -*----------------------------------*\
  =========                 |
  \\      /  F ield         | OpenFOAM: The Open Source CFD Toolbox
   \\    /   O peration     | Website:  https://openfoam.org
    \\  /    A nd           | Version:  10
     \\/     M anipulation  |
\*---------------------------------------------------------------------------*/
FoamFile
{
    format      ascii;
    class       volScalarField;
    location    "300";
    object      alphat;
}
// * * * * * * * * * * * * * * * * * * * * * * * * * * * * * * * * * * * * * //

dimensions      [1 -1 -1 0 0 0 0];

internalField   nonuniform List<scalar> 
112000
(
0.00276557
0.00278823
0.00281335
0.00284175
0.0028713
0.00290072
0.00292962
0.00295793
0.00298556
0.00301242
0.00303842
0.00306342
0.00308725
0.00310965
0.00313025
0.00314843
0.00316315
0.00317261
0.00317412
0.00315916
0.00277433
0.00283622
0.00289503
0.00295209
0.00300706
0.00305954
0.00310947
0.00315692
0.00320193
0.00324451
0.00328462
0.0033222
0.00335711
0.00338913
0.00341789
0.00344281
0.00346293
0.00347663
0.0034821
0.00347276
0.00278068
0.00285244
0.00292282
0.00299107
0.00305678
0.00311954
0.00317913
0.00323548
0.00328856
0.00333836
0.00338485
0.00342799
0.00346763
0.00350355
0.00353537
0.00356246
0.00358379
0.00359764
0.0036021
0.00359049
0.00278154
0.00285484
0.00292872
0.00300217
0.0030741
0.00314366
0.00321028
0.00327358
0.0033333
0.00338931
0.00344145
0.00348961
0.00353361
0.00357317
0.00360788
0.00363704
0.00365954
0.00367343
0.0036765
0.00366132
0.00278136
0.00285492
0.00292982
0.00300498
0.0030791
0.00315121
0.00322067
0.00328703
0.00334999
0.0034093
0.00346477
0.00351621
0.00356338
0.00360597
0.0036435
0.0036752
0.00369986
0.00371538
0.00371923
0.00370338
0.00278105
0.00285459
0.00292957
0.00300503
0.00307969
0.00315261
0.00322318
0.00329095
0.00335558
0.0034168
0.00347434
0.00352797
0.00357739
0.00362224
0.00366197
0.00369577
0.00372237
0.00373954
0.00374463
0.00372916
0.00278079
0.00285428
0.00292925
0.00300474
0.0030795
0.00315259
0.00322343
0.00329156
0.00335667
0.00341846
0.0034767
0.00353113
0.00358145
0.0036273
0.00366811
0.00370306
0.00373085
0.00374921
0.00375545
0.0037409
0.00278059
0.00285405
0.002929
0.00300448
0.00307923
0.00315233
0.00322319
0.0032914
0.00335662
0.00341858
0.00347704
0.00353176
0.00358243
0.00362868
0.00366996
0.00370542
0.00373376
0.0037527
0.00375953
0.0037455
0.00278045
0.00285391
0.00292884
0.0030043
0.00307904
0.00315213
0.00322298
0.00329117
0.00335639
0.00341837
0.00347686
0.00353162
0.00358237
0.00362871
0.00367011
0.00370571
0.00373422
0.00375336
0.00376043
0.00374665
0.00278039
0.00285383
0.00292876
0.00300422
0.00307895
0.00315202
0.00322286
0.00329104
0.00335625
0.00341822
0.00347671
0.00353147
0.00358222
0.00362857
0.00366998
0.00370562
0.00373417
0.00375335
0.00376048
0.00374675
0.00278039
0.00285383
0.00292876
0.00300422
0.00307895
0.00315202
0.00322286
0.00329104
0.00335625
0.00341822
0.00347671
0.00353147
0.00358222
0.00362857
0.00366998
0.00370562
0.00373417
0.00375335
0.00376048
0.00374675
0.00278045
0.00285391
0.00292884
0.0030043
0.00307904
0.00315213
0.00322298
0.00329117
0.00335639
0.00341837
0.00347686
0.00353162
0.00358237
0.00362871
0.0036701
0.00370571
0.00373422
0.00375336
0.00376043
0.00374665
0.00278059
0.00285405
0.002929
0.00300448
0.00307923
0.00315233
0.00322319
0.0032914
0.00335662
0.00341858
0.00347704
0.00353176
0.00358243
0.00362868
0.00366996
0.00370542
0.00373376
0.0037527
0.00375952
0.0037455
0.00278079
0.00285428
0.00292925
0.00300474
0.0030795
0.00315259
0.00322342
0.00329156
0.00335667
0.00341846
0.0034767
0.00353113
0.00358145
0.0036273
0.00366811
0.00370306
0.00373085
0.00374921
0.00375545
0.0037409
0.00278105
0.00285458
0.00292957
0.00300503
0.00307969
0.00315261
0.00322318
0.00329095
0.00335558
0.0034168
0.00347434
0.00352797
0.00357739
0.00362223
0.00366197
0.00369577
0.00372237
0.00373954
0.00374463
0.00372915
0.00278136
0.00285492
0.00292982
0.00300497
0.00307909
0.00315121
0.00322067
0.00328703
0.00334999
0.0034093
0.00346477
0.0035162
0.00356338
0.00360597
0.00364349
0.0036752
0.00369986
0.00371537
0.00371923
0.00370337
0.00278154
0.00285483
0.00292872
0.00300217
0.0030741
0.00314366
0.00321028
0.00327358
0.0033333
0.00338931
0.00344145
0.00348961
0.00353361
0.00357317
0.00360788
0.00363704
0.00365954
0.00367343
0.00367649
0.00366132
0.00278068
0.00285244
0.00292281
0.00299107
0.00305678
0.00311954
0.00317913
0.00323548
0.00328855
0.00333835
0.00338485
0.00342798
0.00346762
0.00350355
0.00353536
0.00356245
0.00358379
0.00359763
0.0036021
0.00359049
0.00277433
0.00283622
0.00289503
0.00295209
0.00300706
0.00305954
0.00310947
0.00315692
0.00320193
0.00324451
0.00328462
0.00332219
0.0033571
0.00338912
0.00341789
0.00344281
0.00346293
0.00347663
0.00348209
0.00347275
0.00276557
0.00278823
0.00281335
0.00284174
0.0028713
0.00290072
0.00292962
0.00295792
0.00298555
0.00301242
0.00303842
0.00306341
0.00308724
0.00310965
0.00313025
0.00314842
0.00316315
0.00317261
0.00317411
0.00315915
0.00277451
0.00283554
0.00289306
0.00294843
0.00300138
0.00305152
0.0030988
0.00314332
0.00318515
0.00322446
0.00326121
0.00329533
0.00332672
0.00335519
0.00338045
0.00340197
0.00341889
0.00342976
0.00343241
0.00342296
0.026165
0.0235749
0.0218125
0.0204857
0.0194329
0.0185646
0.0178271
0.0171864
0.0166191
0.0161058
0.015637
0.0152054
0.0148063
0.0144363
0.014094
0.0137803
0.0134993
0.0132612
0.0130985
0.0130388
0.0289353
0.0276345
0.0265155
0.0255052
0.0245918
0.0237638
0.023009
0.0223166
0.0216782
0.0210866
0.0205367
0.0200245
0.0195476
0.0191054
0.0186996
0.0183352
0.0180232
0.0177851
0.0176802
0.0177598
0.0291418
0.0281216
0.0272693
0.0264871
0.0257557
0.0250667
0.0244137
0.0237925
0.0232003
0.0226352
0.0220962
0.0215825
0.0210943
0.0206329
0.0202016
0.019807
0.0194618
0.0191901
0.0190595
0.0191308
0.0291656
0.0282005
0.0274306
0.0267465
0.0261157
0.025521
0.0249516
0.0244008
0.0238652
0.0233432
0.0228341
0.0223381
0.0218561
0.0213899
0.0209428
0.020521
0.0201357
0.0198082
0.0196023
0.019572
0.0291668
0.0282087
0.0274555
0.0267992
0.0262049
0.0256526
0.0251286
0.024624
0.0241332
0.0236527
0.0231807
0.0227164
0.0222597
0.0218117
0.0213748
0.020954
0.0205586
0.0202061
0.019955
0.0198489
0.0291655
0.0282076
0.0274565
0.0268065
0.0262232
0.0256862
0.0251813
0.0246986
0.0242318
0.0237765
0.0233299
0.0228904
0.0224572
0.0220306
0.0216122
0.0212059
0.0208197
0.0204685
0.0202075
0.0200718
0.0291641
0.0282058
0.0274542
0.0268047
0.0262235
0.0256903
0.0251909
0.0247156
0.0242578
0.0238132
0.0233787
0.0229523
0.0225329
0.0221205
0.0217163
0.0213235
0.0209494
0.0206081
0.0203529
0.0202147
0.0291631
0.0282046
0.0274524
0.0268026
0.0262215
0.025689
0.025191
0.0247178
0.024263
0.0238221
0.0233923
0.0229714
0.0225583
0.0221528
0.0217561
0.0213713
0.0210055
0.0206721
0.0204244
0.020291
0.0291626
0.0282041
0.0274516
0.0268015
0.0262202
0.0256878
0.0251899
0.0247172
0.0242631
0.0238233
0.0233947
0.0229755
0.0225645
0.0221615
0.0217677
0.0213861
0.0210239
0.0206945
0.0204509
0.0203212
0.0291626
0.0282041
0.0274516
0.0268015
0.0262202
0.0256878
0.0251899
0.0247172
0.0242631
0.0238233
0.0233947
0.0229755
0.0225645
0.0221615
0.0217677
0.0213861
0.0210239
0.0206945
0.0204509
0.0203212
0.0291631
0.0282046
0.0274524
0.0268026
0.0262215
0.025689
0.025191
0.0247178
0.024263
0.0238221
0.0233923
0.0229714
0.0225583
0.0221528
0.0217561
0.0213713
0.0210055
0.0206721
0.0204244
0.020291
0.0291641
0.0282058
0.0274542
0.0268047
0.0262235
0.0256903
0.0251909
0.0247156
0.0242578
0.0238132
0.0233787
0.0229523
0.0225329
0.0221205
0.0217163
0.0213235
0.0209494
0.0206081
0.0203529
0.0202147
0.0291655
0.0282076
0.0274564
0.0268065
0.0262232
0.0256862
0.0251813
0.0246986
0.0242318
0.0237765
0.0233299
0.0228904
0.0224572
0.0220306
0.0216122
0.0212059
0.0208196
0.0204685
0.0202074
0.0200718
0.0291668
0.0282087
0.0274555
0.0267992
0.0262049
0.0256526
0.0251286
0.024624
0.0241332
0.0236527
0.0231807
0.0227164
0.0222597
0.0218116
0.0213748
0.020954
0.0205586
0.0202061
0.019955
0.0198489
0.0291656
0.0282005
0.0274306
0.0267465
0.0261157
0.025521
0.0249516
0.0244008
0.0238652
0.0233432
0.0228341
0.0223381
0.0218561
0.0213898
0.0209428
0.0205209
0.0201357
0.0198082
0.0196023
0.0195719
0.0291418
0.0281216
0.0272693
0.0264871
0.0257557
0.0250667
0.0244137
0.0237925
0.0232003
0.0226352
0.0220962
0.0215825
0.0210943
0.0206329
0.0202016
0.019807
0.0194618
0.0191901
0.0190595
0.0191308
0.0289353
0.0276345
0.0265155
0.0255052
0.0245918
0.0237638
0.023009
0.0223166
0.0216782
0.0210866
0.0205367
0.0200245
0.0195476
0.0191054
0.0186996
0.0183352
0.0180232
0.0177851
0.0176802
0.0177598
0.026165
0.0235749
0.0218125
0.0204857
0.0194328
0.0185646
0.0178271
0.0171864
0.0166191
0.0161058
0.015637
0.0152054
0.0148063
0.0144363
0.014094
0.0137803
0.0134994
0.0132613
0.0130985
0.0130389
0.00277451
0.00283553
0.00289305
0.00294843
0.00300138
0.00305152
0.0030988
0.00314331
0.00318515
0.00322446
0.0032612
0.00329532
0.00332672
0.00335519
0.00338045
0.00340196
0.00341889
0.00342975
0.0034324
0.00342296
0.00278212
0.00285347
0.00292303
0.00299009
0.00305422
0.00311508
0.00317246
0.00322633
0.00327669
0.00332361
0.00336732
0.00340776
0.00344483
0.00347839
0.00350819
0.00353385
0.00355478
0.00357002
0.00357832
0.00357787
0.0289712
0.0276867
0.0265781
0.0255744
0.0246642
0.023837
0.0230806
0.0223845
0.02174
0.0211392
0.0205672
0.0200227
0.0195048
0.019013
0.0185483
0.0181128
0.0177116
0.0173552
0.017066
0.016856
0.033414
0.0335822
0.033601
0.033443
0.0331447
0.0327488
0.0322871
0.0317823
0.0312514
0.0307057
0.0301522
0.0295994
0.0290547
0.0285256
0.0280201
0.0275496
0.0271314
0.0267928
0.0265845
0.0265325
0.0338587
0.0344781
0.0349005
0.0351096
0.0351379
0.0350264
0.0348091
0.0345123
0.0341568
0.0337597
0.0333344
0.0328925
0.0324443
0.0320005
0.0315736
0.0311805
0.0308467
0.0306121
0.0305497
0.0307053
0.0339377
0.0347082
0.0352896
0.0356491
0.0358097
0.0358087
0.0356797
0.0354511
0.0351463
0.0347849
0.0343826
0.033953
0.0335077
0.0330584
0.0326183
0.032205
0.0318449
0.0315803
0.0314927
0.031641
0.0339481
0.0347543
0.0353927
0.0358242
0.036064
0.0361414
0.0360849
0.0359192
0.035666
0.0353435
0.0349675
0.034551
0.0341058
0.0336429
0.0331746
0.0327169
0.0322936
0.0319424
0.0317419
0.031751
0.0339472
0.034758
0.0354098
0.0358652
0.0361382
0.0362561
0.0362441
0.0361247
0.0359167
0.0356366
0.0352983
0.0349133
0.034492
0.034044
0.0335799
0.0331134
0.0326648
0.0322666
0.0319905
0.0318884
0.0339453
0.0347558
0.0354089
0.0358693
0.0361518
0.0362837
0.03629
0.0361924
0.036009
0.0357553
0.0354441
0.035086
0.0346902
0.0342651
0.03382
0.0333666
0.032923
0.0325177
0.0322178
0.0320678
0.0339439
0.0347538
0.0354063
0.035867
0.0361513
0.0362869
0.036299
0.0362092
0.0360358
0.035794
0.0354964
0.0351532
0.0347731
0.0343641
0.0339347
0.0334959
0.0330641
0.0326665
0.032367
0.0322059
0.0339432
0.0347529
0.0354049
0.0358652
0.0361497
0.0362859
0.0362994
0.0362118
0.0360414
0.0358035
0.0355108
0.0351733
0.0347998
0.0343979
0.0339762
0.033545
0.0331207
0.0327294
0.0324343
0.0322735
0.0339432
0.0347529
0.0354049
0.0358652
0.0361497
0.0362859
0.0362994
0.0362118
0.0360414
0.0358035
0.0355108
0.0351733
0.0347998
0.0343979
0.0339762
0.033545
0.0331207
0.0327294
0.0324343
0.0322735
0.0339439
0.0347538
0.0354063
0.035867
0.0361513
0.0362869
0.036299
0.0362092
0.0360358
0.035794
0.0354964
0.0351532
0.0347731
0.0343641
0.0339347
0.0334958
0.0330641
0.0326664
0.032367
0.0322059
0.0339453
0.0347558
0.0354089
0.0358693
0.0361518
0.0362837
0.03629
0.0361924
0.036009
0.0357553
0.0354441
0.035086
0.0346902
0.0342651
0.03382
0.0333666
0.0329229
0.0325177
0.0322178
0.0320678
0.0339472
0.034758
0.0354098
0.0358652
0.0361382
0.036256
0.0362441
0.0361246
0.0359167
0.0356366
0.0352983
0.0349133
0.0344919
0.034044
0.0335799
0.0331134
0.0326648
0.0322666
0.0319905
0.0318884
0.0339481
0.0347542
0.0353927
0.0358242
0.036064
0.0361414
0.0360849
0.0359192
0.0356659
0.0353435
0.0349675
0.034551
0.0341057
0.0336429
0.0331746
0.0327169
0.0322935
0.0319424
0.0317418
0.031751
0.0339376
0.0347082
0.0352896
0.0356491
0.0358097
0.0358087
0.0356797
0.0354511
0.0351463
0.0347848
0.0343826
0.033953
0.0335077
0.0330584
0.0326183
0.0322049
0.0318449
0.0315803
0.0314926
0.031641
0.0338587
0.0344781
0.0349005
0.0351096
0.0351379
0.0350264
0.0348091
0.0345123
0.0341568
0.0337597
0.0333344
0.0328924
0.0324443
0.0320005
0.0315736
0.0311805
0.0308467
0.0306121
0.0305497
0.0307053
0.033414
0.0335821
0.033601
0.033443
0.0331447
0.0327488
0.0322871
0.0317823
0.0312513
0.0307057
0.0301522
0.0295994
0.0290547
0.0285256
0.0280201
0.0275496
0.0271314
0.0267929
0.0265846
0.0265326
0.0289712
0.0276867
0.0265781
0.0255744
0.0246642
0.023837
0.0230806
0.0223845
0.02174
0.0211392
0.0205672
0.0200228
0.0195048
0.019013
0.0185484
0.0181128
0.0177117
0.0173553
0.0170661
0.0168561
0.00278212
0.00285346
0.00292303
0.00299008
0.00305422
0.00311508
0.00317246
0.00322633
0.00327669
0.00332361
0.00336732
0.00340776
0.00344483
0.00347839
0.00350818
0.00353384
0.00355477
0.00357002
0.00357831
0.00357786
0.00278437
0.00285738
0.0029306
0.00300302
0.00307356
0.0031414
0.00320601
0.00326703
0.00332429
0.00337767
0.00342712
0.00347262
0.0035141
0.00355151
0.00358472
0.00361384
0.00363853
0.00365829
0.00367255
0.0036807
0.0291951
0.0281951
0.0273574
0.0265858
0.0258625
0.0251803
0.0245336
0.0239182
0.0233315
0.0227715
0.0222363
0.0217249
0.0212367
0.0207727
0.0203368
0.019917
0.0195201
0.0191575
0.0188465
0.0185979
0.0339081
0.0345448
0.0349803
0.0351995
0.0352356
0.0351302
0.0349174
0.034623
0.0342677
0.0338679
0.0334365
0.0329851
0.032524
0.0320618
0.0316021
0.0311585
0.0307498
0.0304028
0.0301565
0.0300351
0.0350998
0.0354157
0.0358423
0.036282
0.0366771
0.0370032
0.0372498
0.0374127
0.0374927
0.0374946
0.0374258
0.037295
0.0371122
0.0368903
0.036645
0.0363971
0.0361757
0.0360219
0.0359956
0.0361392
0.0353247
0.0357924
0.0362726
0.0367297
0.0371393
0.0374915
0.0377816
0.0380061
0.0381632
0.0382532
0.038279
0.0382456
0.0381605
0.0380339
0.0378805
0.0377211
0.0375874
0.0375259
0.0376086
0.0378932
0.0353719
0.0359384
0.0365104
0.0370421
0.0375088
0.0379013
0.0382164
0.0384528
0.0386111
0.0386937
0.0387047
0.0386495
0.0385357
0.0383729
0.0381747
0.0379606
0.0377606
0.0376206
0.037616
0.0378138
0.0353767
0.0359682
0.0365781
0.037157
0.0376759
0.0381214
0.038486
0.0387656
0.0389587
0.0390664
0.0390918
0.0390396
0.0389163
0.0387305
0.038494
0.0382239
0.0379467
0.0377034
0.037566
0.0376015
0.0353748
0.03597
0.0365892
0.0371837
0.0377247
0.0381979
0.0385942
0.0389077
0.039135
0.0392754
0.0393303
0.0393028
0.0391979
0.0390223
0.0387856
0.0385024
0.0381954
0.0379005
0.0376842
0.0376084
0.035373
0.0359682
0.0365886
0.0371865
0.0377337
0.0382165
0.0386259
0.0389555
0.0392014
0.0393623
0.0394387
0.0394327
0.0393481
0.0391904
0.0389677
0.0386926
0.0383854
0.0380785
0.037834
0.0377092
0.035372
0.0359671
0.0365873
0.0371855
0.037734
0.0382192
0.0386324
0.0389674
0.0392202
0.0393894
0.0394752
0.0394795
0.0394057
0.0392586
0.0390458
0.038779
0.0384773
0.0381714
0.0379213
0.0377816
0.035372
0.0359671
0.0365873
0.0371855
0.037734
0.0382192
0.0386324
0.0389674
0.0392202
0.0393894
0.0394752
0.0394795
0.0394057
0.0392586
0.0390458
0.038779
0.0384773
0.0381714
0.0379213
0.0377816
0.035373
0.0359682
0.0365886
0.0371865
0.0377337
0.0382165
0.0386259
0.0389555
0.0392014
0.0393623
0.0394387
0.0394327
0.0393481
0.0391904
0.0389677
0.0386926
0.0383854
0.0380785
0.037834
0.0377092
0.0353748
0.03597
0.0365892
0.0371837
0.0377247
0.0381979
0.0385942
0.0389077
0.039135
0.0392754
0.0393302
0.0393028
0.0391979
0.0390223
0.0387856
0.0385024
0.0381954
0.0379005
0.0376841
0.0376084
0.0353767
0.0359681
0.0365781
0.037157
0.0376759
0.0381214
0.038486
0.0387656
0.0389587
0.0390664
0.0390917
0.0390395
0.0389163
0.0387305
0.0384939
0.0382238
0.0379466
0.0377033
0.0375659
0.0376014
0.0353719
0.0359384
0.0365104
0.0370421
0.0375088
0.0379013
0.0382164
0.0384528
0.0386111
0.0386937
0.0387046
0.0386495
0.0385357
0.0383729
0.0381746
0.0379605
0.0377606
0.0376205
0.0376159
0.0378138
0.0353247
0.0357924
0.0362726
0.0367297
0.0371393
0.0374915
0.0377816
0.0380061
0.0381632
0.0382531
0.038279
0.0382456
0.0381605
0.0380339
0.0378804
0.0377211
0.0375873
0.0375258
0.0376086
0.0378931
0.0350998
0.0354157
0.0358423
0.036282
0.0366771
0.0370032
0.0372498
0.0374127
0.0374927
0.0374946
0.0374258
0.037295
0.0371122
0.0368903
0.036645
0.0363971
0.0361757
0.0360219
0.0359956
0.0361392
0.0339081
0.0345448
0.0349803
0.0351995
0.0352356
0.0351302
0.0349174
0.034623
0.0342677
0.0338678
0.0334365
0.0329851
0.032524
0.0320618
0.0316021
0.0311585
0.0307498
0.0304029
0.0301565
0.0300351
0.0291951
0.0281951
0.0273574
0.0265858
0.0258625
0.0251803
0.0245336
0.0239182
0.0233315
0.0227715
0.0222363
0.0217249
0.0212367
0.0207727
0.0203367
0.0199171
0.0195202
0.0191576
0.0188466
0.018598
0.00278437
0.00285738
0.0029306
0.00300301
0.00307355
0.0031414
0.003206
0.00326703
0.00332428
0.00337767
0.00342712
0.00347261
0.0035141
0.00355151
0.00358472
0.00361383
0.00363852
0.00365829
0.00367255
0.00368069
0.00278589
0.00285927
0.00293367
0.00300801
0.00308099
0.00315166
0.00321941
0.00328384
0.00334468
0.00340178
0.00345503
0.00350438
0.00354976
0.00359113
0.00362841
0.0036618
0.00369112
0.0037162
0.00373692
0.00375329
0.029237
0.0282933
0.0275406
0.0268704
0.0262517
0.0256689
0.0251118
0.0245749
0.024055
0.023551
0.0230627
0.0225905
0.0221354
0.0216996
0.0212865
0.0208899
0.020518
0.0201802
0.0198888
0.0196509
0.0340162
0.0348157
0.0354249
0.0358115
0.0359996
0.0360267
0.0359269
0.0357285
0.0354549
0.0351254
0.0347561
0.0343602
0.0339496
0.0335362
0.0331306
0.0327398
0.0323823
0.0320822
0.0318683
0.0317592
0.0353818
0.0358745
0.0363812
0.0368668
0.0373071
0.0376923
0.0380174
0.0382787
0.038474
0.0386037
0.0386706
0.0386799
0.0386395
0.0385587
0.0384501
0.0383331
0.0382345
0.0381911
0.0382492
0.0384425
0.0362867
0.0363866
0.0365982
0.0368839
0.0372056
0.0375404
0.037874
0.0381945
0.0384912
0.0387555
0.0389811
0.0391647
0.0393063
0.0394103
0.0394865
0.0395522
0.0396354
0.0397772
0.0400335
0.0404502
0.0364649
0.0366973
0.0369491
0.0372199
0.0374975
0.0377734
0.0380418
0.0382969
0.0385322
0.0387412
0.0389185
0.0390607
0.0391669
0.0392396
0.0392868
0.0393241
0.0393781
0.0394901
0.0397206
0.0401249
0.036497
0.0368064
0.03713
0.0374584
0.037779
0.0380829
0.0383644
0.0386183
0.038839
0.0390214
0.0391611
0.0392551
0.0393026
0.0393059
0.0392716
0.0392136
0.0391561
0.0391383
0.0392204
0.0394626
0.0364987
0.0368275
0.0371799
0.0375429
0.0379014
0.038244
0.0385622
0.0388481
0.0390945
0.0392946
0.039443
0.0395357
0.0395706
0.0395484
0.0394741
0.039359
0.0392242
0.0391046
0.0390572
0.0391417
0.0364966
0.0368285
0.0371882
0.0375627
0.037937
0.0382993
0.0386403
0.0389508
0.0392221
0.0394462
0.039616
0.0397262
0.0397732
0.0397561
0.039678
0.0395479
0.0393838
0.039217
0.0391005
0.0390915
0.0364953
0.0368275
0.0371885
0.0375656
0.0379442
0.0383129
0.0386624
0.0389834
0.0392665
0.0395033
0.0396862
0.0398089
0.0398671
0.0398588
0.0397862
0.0396567
0.0394869
0.0393059
0.0391643
0.0391173
0.0364953
0.0368275
0.0371885
0.0375656
0.0379442
0.0383129
0.0386624
0.0389834
0.0392665
0.0395033
0.0396862
0.0398089
0.0398671
0.0398588
0.0397862
0.0396567
0.0394869
0.0393059
0.0391643
0.0391173
0.0364966
0.0368285
0.0371882
0.0375627
0.0379369
0.0382993
0.0386403
0.0389508
0.0392221
0.0394462
0.039616
0.0397262
0.0397732
0.0397561
0.039678
0.0395478
0.0393838
0.039217
0.0391005
0.0390915
0.0364987
0.0368275
0.0371799
0.0375429
0.0379014
0.038244
0.0385622
0.0388481
0.0390944
0.0392946
0.039443
0.0395357
0.0395705
0.0395483
0.039474
0.039359
0.0392242
0.0391046
0.0390572
0.0391417
0.036497
0.0368064
0.03713
0.0374584
0.037779
0.0380829
0.0383644
0.0386182
0.038839
0.0390214
0.0391611
0.0392551
0.0393026
0.0393058
0.0392715
0.0392135
0.0391561
0.0391382
0.0392203
0.0394625
0.0364649
0.0366973
0.0369491
0.0372199
0.0374975
0.0377734
0.0380418
0.0382969
0.0385322
0.0387412
0.0389185
0.0390607
0.0391668
0.0392395
0.0392868
0.0393241
0.039378
0.03949
0.0397205
0.0401248
0.0362867
0.0363866
0.0365982
0.0368839
0.0372056
0.0375404
0.037874
0.0381945
0.0384912
0.0387555
0.0389811
0.0391647
0.0393063
0.0394102
0.0394864
0.0395522
0.0396353
0.0397771
0.0400334
0.0404501
0.0353818
0.0358745
0.0363812
0.0368668
0.0373071
0.0376923
0.0380174
0.0382787
0.038474
0.0386037
0.0386706
0.0386799
0.0386395
0.0385587
0.0384501
0.0383331
0.0382345
0.0381911
0.0382491
0.0384425
0.0340162
0.0348157
0.0354249
0.0358115
0.0359996
0.0360267
0.0359269
0.0357284
0.0354548
0.0351254
0.034756
0.0343602
0.0339496
0.0335361
0.0331306
0.0327397
0.0323823
0.0320822
0.0318683
0.0317593
0.029237
0.0282933
0.0275406
0.0268704
0.0262517
0.0256689
0.0251118
0.0245749
0.024055
0.023551
0.0230627
0.0225905
0.0221354
0.0216996
0.0212865
0.0208899
0.020518
0.0201802
0.0198888
0.019651
0.00278589
0.00285927
0.00293367
0.00300801
0.00308099
0.00315166
0.00321941
0.00328384
0.00334468
0.00340178
0.00345503
0.00350437
0.00354976
0.00359112
0.00362841
0.0036618
0.00369112
0.00371619
0.00373691
0.00375328
0.00278757
0.00286101
0.00293566
0.00301053
0.00308435
0.0031562
0.00322548
0.0032918
0.00335487
0.00341448
0.00347049
0.0035228
0.00357135
0.00361608
0.00365697
0.00369398
0.00372718
0.00375692
0.00378336
0.0038068
0.0292586
0.0283213
0.0275856
0.0269441
0.0263635
0.0258251
0.0253164
0.0248295
0.0243599
0.0239048
0.0234633
0.0230355
0.0226223
0.0222258
0.0218494
0.0214975
0.0211763
0.0208825
0.0206269
0.0204166
0.0340521
0.0348903
0.0355615
0.0360275
0.0363042
0.0364222
0.0364105
0.036295
0.0360978
0.0358383
0.035533
0.0351962
0.034841
0.0344799
0.0341259
0.0337945
0.0334977
0.0332522
0.0330814
0.033001
0.0354626
0.0360647
0.0366774
0.0372559
0.0377763
0.0382303
0.0386154
0.038931
0.0391783
0.0393603
0.039482
0.0395503
0.039574
0.0395646
0.0395367
0.0395073
0.0394994
0.0395446
0.0396793
0.0399309
0.0365236
0.0367779
0.0370535
0.0373519
0.0376623
0.0379772
0.0382922
0.0386025
0.0389022
0.0391859
0.039449
0.039689
0.0399058
0.0401034
0.04029
0.0404807
0.0406995
0.0409807
0.0413677
0.0418963
0.0373231
0.0373214
0.0373936
0.0375232
0.0376873
0.0378714
0.038068
0.0382721
0.0384789
0.0386837
0.0388826
0.0390725
0.0392526
0.0394251
0.0395967
0.0397811
0.0400013
0.0402922
0.0407009
0.0412705
0.0374704
0.0375904
0.0377137
0.037849
0.0379915
0.0381364
0.0382808
0.0384229
0.0385597
0.0386882
0.038805
0.0389078
0.0389956
0.0390702
0.0391376
0.0392105
0.0393105
0.0394721
0.0397435
0.0401736
0.0374937
0.0376768
0.03786
0.0380441
0.0382243
0.0383955
0.0385548
0.0386999
0.0388282
0.0389368
0.0390224
0.0390825
0.0391158
0.039123
0.0391091
0.0390849
0.03907
0.0390967
0.0392121
0.0394674
0.0374942
0.0376933
0.0378996
0.0381109
0.0383205
0.0385218
0.0387096
0.0388797
0.039028
0.03915
0.0392417
0.0392993
0.0393203
0.0393045
0.0392551
0.0391811
0.0391001
0.0390417
0.039051
0.0391793
0.0374928
0.0376946
0.0379068
0.0381268
0.0383477
0.0385626
0.0387657
0.0389517
0.0391152
0.039251
0.039354
0.0394194
0.0394438
0.0394259
0.0393679
0.0392776
0.0391712
0.0390764
0.0390372
0.0391043
0.0374928
0.0376946
0.0379068
0.0381268
0.0383477
0.0385626
0.0387657
0.0389517
0.0391152
0.039251
0.039354
0.0394194
0.0394438
0.0394259
0.0393679
0.0392776
0.0391712
0.0390764
0.0390372
0.0391043
0.0374942
0.0376933
0.0378996
0.0381109
0.0383205
0.0385218
0.0387096
0.0388797
0.039028
0.03915
0.0392416
0.0392992
0.0393203
0.0393045
0.0392551
0.0391811
0.0391001
0.0390416
0.0390509
0.0391793
0.0374937
0.0376768
0.03786
0.0380441
0.0382243
0.0383955
0.0385548
0.0386999
0.0388282
0.0389368
0.0390224
0.0390825
0.0391157
0.039123
0.0391091
0.0390848
0.03907
0.0390967
0.039212
0.0394673
0.0374704
0.0375904
0.0377137
0.037849
0.0379915
0.0381364
0.0382808
0.0384228
0.0385597
0.0386881
0.038805
0.0389077
0.0389955
0.0390701
0.0391376
0.0392104
0.0393104
0.039472
0.0397434
0.0401734
0.0373231
0.0373214
0.0373936
0.0375232
0.0376873
0.0378714
0.038068
0.0382721
0.0384789
0.0386837
0.0388825
0.0390725
0.0392526
0.039425
0.0395967
0.039781
0.0400012
0.0402921
0.0407008
0.0412703
0.0365236
0.0367778
0.0370535
0.0373519
0.0376623
0.0379772
0.0382922
0.0386025
0.0389022
0.0391859
0.039449
0.0396889
0.0399058
0.0401034
0.0402899
0.0404806
0.0406994
0.0409806
0.0413676
0.0418961
0.0354626
0.0360647
0.0366774
0.0372559
0.0377763
0.0382303
0.0386154
0.038931
0.0391783
0.0393603
0.039482
0.0395503
0.039574
0.0395645
0.0395366
0.0395072
0.0394993
0.0395445
0.0396792
0.0399308
0.0340521
0.0348903
0.0355615
0.0360274
0.0363042
0.0364221
0.0364105
0.036295
0.0360978
0.0358383
0.0355329
0.0351962
0.034841
0.0344798
0.0341259
0.0337944
0.0334976
0.0332521
0.0330814
0.033001
0.0292586
0.0283213
0.0275856
0.0269441
0.0263635
0.0258251
0.0253164
0.0248295
0.0243599
0.0239048
0.0234633
0.0230355
0.0226223
0.0222258
0.0218494
0.0214975
0.0211763
0.0208825
0.020627
0.0204166
0.00278757
0.00286101
0.00293566
0.00301053
0.00308435
0.00315619
0.00322548
0.0032918
0.00335487
0.00341448
0.00347049
0.0035228
0.00357135
0.00361608
0.00365696
0.00369398
0.00372718
0.00375692
0.00378336
0.00380679
0.00278951
0.002863
0.0029378
0.00301295
0.00308721
0.00315966
0.00322973
0.00329703
0.0033613
0.00342234
0.00348003
0.00353428
0.00358505
0.00363235
0.00367617
0.00371657
0.00375364
0.00378773
0.00381931
0.00384881
0.02928
0.0283423
0.0276089
0.0269749
0.0264072
0.0258867
0.0254001
0.0249391
0.024498
0.0240738
0.0236646
0.02327
0.0228908
0.0225286
0.0221865
0.021869
0.0215821
0.0213278
0.0211099
0.0209351
0.0340782
0.0349222
0.0356091
0.0361025
0.0364174
0.0365821
0.0366233
0.0365642
0.0364253
0.0362247
0.0359779
0.0356987
0.0354
0.0350942
0.0347941
0.0345141
0.034271
0.0340778
0.0339511
0.0339057
0.0354972
0.0361268
0.0367826
0.0374162
0.0380001
0.0385219
0.0389761
0.0393598
0.0396735
0.0399202
0.0401053
0.0402364
0.0403233
0.0403782
0.0404162
0.040456
0.0405201
0.0406332
0.0408261
0.0411233
0.0365929
0.0369335
0.0372936
0.0376663
0.038041
0.0384113
0.0387737
0.0391254
0.0394631
0.0397843
0.040087
0.0403713
0.0406394
0.0408968
0.0411529
0.0414227
0.0417275
0.0420969
0.0425664
0.0431668
0.0375302
0.0376694
0.0378136
0.0379731
0.0381448
0.0383254
0.0385135
0.0387087
0.0389099
0.0391158
0.0393251
0.0395373
0.0397536
0.0399781
0.0402187
0.0404889
0.0408096
0.0412111
0.0417319
0.0424079
0.0382396
0.0381943
0.038201
0.0382496
0.0383244
0.0384139
0.0385123
0.0386161
0.0387234
0.0388324
0.0389419
0.0390518
0.0391636
0.0392813
0.0394127
0.0395712
0.0397776
0.040063
0.0404677
0.0410331
0.0383642
0.0384278
0.0384869
0.0385514
0.0386201
0.0386891
0.0387562
0.0388196
0.038878
0.0389299
0.0389741
0.0390102
0.0390389
0.0390635
0.0390911
0.0391339
0.039212
0.0393557
0.0396059
0.0400073
0.0383825
0.0384993
0.038609
0.0387149
0.0388158
0.0389082
0.0389893
0.0390571
0.0391103
0.0391474
0.0391671
0.0391687
0.0391528
0.039122
0.0390825
0.0390456
0.0390306
0.0390666
0.0391946
0.0394612
0.0383834
0.0385133
0.0386411
0.0387675
0.0388896
0.0390025
0.0391018
0.0391841
0.039247
0.0392884
0.0393064
0.0393
0.0392692
0.0392165
0.0391475
0.0390731
0.0390119
0.0389926
0.0390561
0.0392498
0.0383834
0.0385133
0.0386411
0.0387675
0.0388896
0.0390025
0.0391018
0.0391841
0.039247
0.0392884
0.0393064
0.0392999
0.0392692
0.0392165
0.0391475
0.0390731
0.0390118
0.0389926
0.0390561
0.0392497
0.0383825
0.0384993
0.038609
0.0387149
0.0388158
0.0389082
0.0389893
0.0390571
0.0391103
0.0391474
0.0391671
0.0391687
0.0391528
0.039122
0.0390824
0.0390456
0.0390305
0.0390666
0.0391946
0.0394611
0.0383642
0.0384278
0.0384869
0.0385514
0.0386201
0.0386891
0.0387562
0.0388196
0.038878
0.0389299
0.0389741
0.0390101
0.0390388
0.0390635
0.039091
0.0391338
0.039212
0.0393556
0.0396058
0.0400072
0.0382396
0.0381943
0.038201
0.0382496
0.0383243
0.0384139
0.0385123
0.0386161
0.0387234
0.0388323
0.0389418
0.0390518
0.0391636
0.0392813
0.0394127
0.0395711
0.0397776
0.0400629
0.0404676
0.0410329
0.0375302
0.0376694
0.0378136
0.0379731
0.0381448
0.0383253
0.0385135
0.0387087
0.0389099
0.0391158
0.039325
0.0395372
0.0397536
0.039978
0.0402186
0.0404888
0.0408095
0.041211
0.0417317
0.0424077
0.0365929
0.0369335
0.0372936
0.0376663
0.038041
0.0384113
0.0387737
0.0391253
0.0394631
0.0397842
0.040087
0.0403712
0.0406393
0.0408967
0.0411528
0.0414226
0.0417273
0.0420967
0.0425662
0.0431666
0.0354972
0.0361268
0.0367826
0.0374162
0.038
0.0385219
0.038976
0.0393598
0.0396735
0.0399202
0.0401052
0.0402363
0.0403232
0.0403781
0.0404161
0.0404559
0.04052
0.0406331
0.0408259
0.0411232
0.0340782
0.0349222
0.0356091
0.0361025
0.0364174
0.0365821
0.0366232
0.0365641
0.0364253
0.0362246
0.0359778
0.0356987
0.0354
0.0350941
0.034794
0.034514
0.034271
0.0340778
0.0339511
0.0339057
0.02928
0.0283423
0.0276089
0.0269749
0.0264072
0.0258867
0.0254001
0.0249391
0.024498
0.0240738
0.0236646
0.02327
0.0228908
0.0225286
0.0221865
0.021869
0.0215821
0.0213278
0.0211099
0.0209351
0.00278951
0.002863
0.0029378
0.00301295
0.00308721
0.00315966
0.00322973
0.00329703
0.0033613
0.00342234
0.00348003
0.00353428
0.00358505
0.00363234
0.00367617
0.00371657
0.00375363
0.00378773
0.00381931
0.00384881
0.00279168
0.00286524
0.00294019
0.00301559
0.00309019
0.0031631
0.00323375
0.0033018
0.00336699
0.00342915
0.00348818
0.00354402
0.00359667
0.00364615
0.00369251
0.00373587
0.00377636
0.00381421
0.00385003
0.00388442
0.0293034
0.0283647
0.0276312
0.026999
0.0264355
0.0259218
0.0254446
0.0249956
0.0245692
0.0241622
0.0237727
0.0234003
0.0230453
0.0227094
0.0223954
0.0221073
0.0218507
0.0216325
0.0214529
0.0213157
0.0341053
0.03495
0.0356402
0.0361414
0.0364697
0.0366533
0.0367186
0.0366886
0.0365832
0.0364197
0.0362131
0.0359768
0.035723
0.0354635
0.0352105
0.0349774
0.034779
0.0346322
0.03455
0.0345435
0.0355261
0.0361602
0.0368275
0.0374807
0.0380924
0.0386499
0.0391462
0.0395774
0.0399425
0.0402438
0.040486
0.0406763
0.0408239
0.0409409
0.0410415
0.0411437
0.0412687
0.0414421
0.0416867
0.0420271
0.036628
0.03699
0.0373834
0.0377979
0.0382208
0.0386438
0.0390613
0.0394689
0.039863
0.0402406
0.0406007
0.0409436
0.0412726
0.0415935
0.0419162
0.0422555
0.0426313
0.0430696
0.043601
0.0442555
0.0375936
0.0378041