/*--------------------------------*- C++ -*----------------------------------*\
  =========                 |
  \\      /  F ield         | OpenFOAM: The Open Source CFD Toolbox
   \\    /   O peration     | Website:  https://openfoam.org
    \\  /    A nd           | Version:  10
     \\/     M anipulation  |
\*---------------------------------------------------------------------------*/
FoamFile
{
    format      ascii;
    class       volScalarField;
    location    "300";
    object      epsilon;
}
// * * * * * * * * * * * * * * * * * * * * * * * * * * * * * * * * * * * * * //

dimensions      [0 2 -3 0 0 0 0];

internalField   nonuniform List<scalar> 
112000
(
3.1829e+06
3.29241e+06
3.40789e+06
3.52827e+06
3.65172e+06
3.77746e+06
3.90547e+06
4.03594e+06
4.16915e+06
4.30548e+06
4.44543e+06
4.58967e+06
4.73907e+06
4.89465e+06
5.05769e+06
5.2297e+06
5.41244e+06
5.60752e+06
5.82204e+06
6.00479e+06
3.28954e+06
3.51747e+06
3.74744e+06
3.97938e+06
4.21198e+06
4.44454e+06
4.67691e+06
4.90914e+06
5.14137e+06
5.37382e+06
5.60692e+06
5.84128e+06
6.0778e+06
6.31763e+06
6.56235e+06
6.81403e+06
7.07572e+06
7.35174e+06
7.65976e+06
7.94903e+06
3.30326e+06
3.56477e+06
3.83802e+06
4.11861e+06
4.40319e+06
4.6894e+06
4.97574e+06
5.26129e+06
5.54552e+06
5.82822e+06
6.10949e+06
6.38971e+06
6.66955e+06
6.95002e+06
7.23253e+06
7.51903e+06
7.81242e+06
8.11687e+06
8.45207e+06
8.75994e+06
3.30609e+06
3.57669e+06
3.8667e+06
4.17094e+06
4.48494e+06
4.80514e+06
5.12873e+06
5.45355e+06
5.77796e+06
6.10079e+06
6.42136e+06
6.73941e+06
7.05508e+06
7.36895e+06
7.68201e+06
7.99578e+06
8.31259e+06
8.63554e+06
8.98352e+06
9.28735e+06
3.30631e+06
3.5782e+06
3.87178e+06
4.1822e+06
4.50503e+06
4.83675e+06
5.1745e+06
5.51589e+06
5.85897e+06
6.20227e+06
6.54474e+06
6.8858e+06
7.22528e+06
7.56345e+06
7.90102e+06
8.23919e+06
8.57985e+06
8.9253e+06
9.2936e+06
9.60714e+06
3.30625e+06
3.57806e+06
3.87207e+06
4.18383e+06
4.50923e+06
4.84509e+06
5.18879e+06
5.53807e+06
5.891e+06
6.24601e+06
6.60191e+06
6.95791e+06
7.31363e+06
7.66912e+06
8.02486e+06
8.38185e+06
8.74175e+06
9.10651e+06
9.49399e+06
9.82087e+06
3.30622e+06
3.57787e+06
3.87178e+06
4.1836e+06
4.50932e+06
4.84585e+06
5.1907e+06
5.54172e+06
5.89711e+06
6.25541e+06
6.61551e+06
6.9767e+06
7.33868e+06
7.70156e+06
8.06588e+06
8.43272e+06
8.80381e+06
9.18118e+06
9.58302e+06
9.92365e+06
3.3062e+06
3.57777e+06
3.87155e+06
4.18327e+06
4.50894e+06
4.8455e+06
5.19053e+06
5.54197e+06
5.89808e+06
6.25747e+06
6.61913e+06
6.9824e+06
7.34703e+06
7.7132e+06
8.0815e+06
8.4531e+06
8.82982e+06
9.21381e+06
9.62369e+06
9.97268e+06
3.3062e+06
3.57771e+06
3.87143e+06
4.18307e+06
4.50865e+06
4.84513e+06
5.19009e+06
5.54149e+06
5.89762e+06
6.25711e+06
6.61899e+06
6.98263e+06
7.34785e+06
7.71486e+06
8.08434e+06
8.45751e+06
8.83633e+06
9.22307e+06
9.63664e+06
9.99005e+06
3.3062e+06
3.57769e+06
3.87137e+06
4.18297e+06
4.50851e+06
4.84495e+06
5.18985e+06
5.5412e+06
5.89728e+06
6.25676e+06
6.61865e+06
6.98237e+06
7.34773e+06
7.71497e+06
8.08481e+06
8.45848e+06
8.838e+06
9.2257e+06
9.64062e+06
9.99571e+06
3.3062e+06
3.57769e+06
3.87137e+06
4.18297e+06
4.50851e+06
4.84495e+06
5.18985e+06
5.5412e+06
5.89728e+06
6.25676e+06
6.61865e+06
6.98237e+06
7.34773e+06
7.71497e+06
8.08481e+06
8.45848e+06
8.838e+06
9.2257e+06
9.64062e+06
9.99571e+06
3.3062e+06
3.57771e+06
3.87143e+06
4.18307e+06
4.50865e+06
4.84513e+06
5.19009e+06
5.54149e+06
5.89762e+06
6.25711e+06
6.61899e+06
6.98263e+06
7.34785e+06
7.71486e+06
8.08434e+06
8.45751e+06
8.83633e+06
9.22307e+06
9.63664e+06
9.99005e+06
3.3062e+06
3.57777e+06
3.87155e+06
4.18327e+06
4.50894e+06
4.8455e+06
5.19053e+06
5.54196e+06
5.89807e+06
6.25747e+06
6.61912e+06
6.9824e+06
7.34703e+06
7.7132e+06
8.0815e+06
8.45309e+06
8.82982e+06
9.21381e+06
9.62369e+06
9.97268e+06
3.30622e+06
3.57787e+06
3.87178e+06
4.1836e+06
4.50932e+06
4.84585e+06
5.1907e+06
5.54172e+06
5.89711e+06
6.25541e+06
6.6155e+06
6.9767e+06
7.33868e+06
7.70156e+06
8.06588e+06
8.43271e+06
8.80381e+06
9.18117e+06
9.58302e+06
9.92365e+06
3.30625e+06
3.57806e+06
3.87207e+06
4.18383e+06
4.50923e+06
4.84509e+06
5.18879e+06
5.53807e+06
5.891e+06
6.24601e+06
6.60191e+06
6.95791e+06
7.31363e+06
7.66912e+06
8.02486e+06
8.38185e+06
8.74175e+06
9.10651e+06
9.49399e+06
9.82087e+06
3.30631e+06
3.5782e+06
3.87178e+06
4.1822e+06
4.50502e+06
4.83675e+06
5.1745e+06
5.51589e+06
5.85897e+06
6.20226e+06
6.54474e+06
6.88579e+06
7.22528e+06
7.56345e+06
7.90102e+06
8.23919e+06
8.57984e+06
8.9253e+06
9.2936e+06
9.60713e+06
3.30609e+06
3.57669e+06
3.8667e+06
4.17094e+06
4.48494e+06
4.80514e+06
5.12873e+06
5.45355e+06
5.77796e+06
6.10079e+06
6.42136e+06
6.73941e+06
7.05508e+06
7.36895e+06
7.68201e+06
7.99578e+06
8.31259e+06
8.63554e+06
8.98352e+06
9.28735e+06
3.30326e+06
3.56477e+06
3.83802e+06
4.11861e+06
4.40319e+06
4.6894e+06
4.97574e+06
5.26129e+06
5.54552e+06
5.82822e+06
6.10949e+06
6.3897e+06
6.66954e+06
6.95002e+06
7.23252e+06
7.51902e+06
7.81242e+06
8.11687e+06
8.45207e+06
8.75993e+06
3.28954e+06
3.51747e+06
3.74744e+06
3.97938e+06
4.21198e+06
4.44454e+06
4.67691e+06
4.90914e+06
5.14137e+06
5.37382e+06
5.60692e+06
5.84128e+06
6.0778e+06
6.31764e+06
6.56235e+06
6.81404e+06
7.07573e+06
7.35174e+06
7.65977e+06
7.94904e+06
3.1829e+06
3.29241e+06
3.40789e+06
3.52827e+06
3.65171e+06
3.77746e+06
3.90547e+06
4.03594e+06
4.16915e+06
4.30547e+06
4.44542e+06
4.58966e+06
4.73906e+06
4.89464e+06
5.05768e+06
5.22969e+06
5.41243e+06
5.60751e+06
5.82202e+06
6.00477e+06
3.28827e+06
3.51287e+06
3.73751e+06
3.96208e+06
4.18524e+06
4.40624e+06
4.62482e+06
4.84096e+06
5.05487e+06
5.26733e+06
5.47862e+06
5.68924e+06
5.89995e+06
6.11183e+06
6.32623e+06
6.54486e+06
6.76974e+06
7.00294e+06
7.24998e+06
7.49116e+06
780603
1.02208e+06
1.23431e+06
1.42756e+06
1.60727e+06
1.77538e+06
1.93271e+06
2.07978e+06
2.21707e+06
2.34524e+06
2.46453e+06
2.57529e+06
2.67806e+06
2.77372e+06
2.8637e+06
2.9505e+06
3.0386e+06
3.13608e+06
3.26795e+06
3.44685e+06
732194
945275
1.13535e+06
1.30741e+06
1.46555e+06
1.61182e+06
1.7472e+06
1.87228e+06
1.98746e+06
2.09303e+06
2.18918e+06
2.27609e+06
2.35403e+06
2.42343e+06
2.48511e+06
2.54065e+06
2.59318e+06
2.64861e+06
2.72877e+06
2.84379e+06
737473
961097
1.16554e+06
1.35337e+06
1.52694e+06
1.68735e+06
1.83502e+06
1.97018e+06
2.09304e+06
2.20374e+06
2.30243e+06
2.38922e+06
2.46424e+06
2.52776e+06
2.58026e+06
2.62276e+06
2.65744e+06
2.68844e+06
2.73504e+06
2.80163e+06
739335
965974
1.17673e+06
1.37431e+06
1.56027e+06
1.73486e+06
1.89777e+06
2.04855e+06
2.18681e+06
2.31219e+06
2.42439e+06
2.52314e+06
2.60825e+06
2.67961e+06
2.73733e+06
2.7819e+06
2.81472e+06
2.83854e+06
2.87098e+06
2.91045e+06
739777
966516
1.17806e+06
1.37768e+06
1.56706e+06
1.74643e+06
1.91541e+06
2.07346e+06
2.22e+06
2.35445e+06
2.47624e+06
2.58481e+06
2.67968e+06
2.7604e+06
2.82674e+06
2.87875e+06
2.91729e+06
2.94417e+06
2.97612e+06
3.00721e+06
739992
966662
1.17817e+06
1.37812e+06
1.56837e+06
1.74924e+06
1.92039e+06
2.08133e+06
2.23148e+06
2.37023e+06
2.49694e+06
2.61098e+06
2.71174e+06
2.79867e+06
2.87135e+06
2.92966e+06
2.97417e+06
3.00625e+06
3.04233e+06
3.07378e+06
740121
966758
1.17815e+06
1.37802e+06
1.56834e+06
1.74945e+06
1.92106e+06
2.0827e+06
2.23384e+06
2.37391e+06
2.50229e+06
2.61838e+06
2.72155e+06
2.81125e+06
2.88703e+06
2.94872e+06
2.99683e+06
3.03258e+06
3.07241e+06
3.1064e+06
740194
966826
1.17814e+06
1.37794e+06
1.56822e+06
1.74936e+06
1.92106e+06
2.08289e+06
2.23433e+06
2.37483e+06
2.50381e+06
2.62067e+06
2.7248e+06
2.81566e+06
2.89282e+06
2.95612e+06
3.00607e+06
3.04386e+06
3.08605e+06
3.12214e+06
740227
966861
1.17815e+06
1.37791e+06
1.56816e+06
1.74928e+06
1.92099e+06
2.08285e+06
2.23434e+06
2.37494e+06
2.50405e+06
2.6211e+06
2.7255e+06
2.8167e+06
2.8943e+06
2.95814e+06
3.00875e+06
3.04735e+06
3.09055e+06
3.12766e+06
740227
966861
1.17815e+06
1.37791e+06
1.56816e+06
1.74928e+06
1.92099e+06
2.08285e+06
2.23434e+06
2.37494e+06
2.50405e+06
2.6211e+06
2.7255e+06
2.8167e+06
2.8943e+06
2.95814e+06
3.00875e+06
3.04735e+06
3.09055e+06
3.12767e+06
740194
966826
1.17814e+06
1.37794e+06
1.56822e+06
1.74936e+06
1.92106e+06
2.08289e+06
2.23433e+06
2.37483e+06
2.50381e+06
2.62067e+06
2.7248e+06
2.81566e+06
2.89282e+06
2.95612e+06
3.00607e+06
3.04386e+06
3.08605e+06
3.12214e+06
740121
966758
1.17815e+06
1.37802e+06
1.56834e+06
1.74945e+06
1.92106e+06
2.0827e+06
2.23384e+06
2.37391e+06
2.50229e+06
2.61838e+06
2.72155e+06
2.81125e+06
2.88703e+06
2.94872e+06
2.99683e+06
3.03258e+06
3.07241e+06
3.10641e+06
739992
966662
1.17817e+06
1.37812e+06
1.56837e+06
1.74924e+06
1.92039e+06
2.08133e+06
2.23148e+06
2.37023e+06
2.49694e+06
2.61098e+06
2.71174e+06
2.79867e+06
2.87135e+06
2.92966e+06
2.97417e+06
3.00626e+06
3.04234e+06
3.07379e+06
739777
966517
1.17806e+06
1.37768e+06
1.56706e+06
1.74643e+06
1.91541e+06
2.07346e+06
2.22e+06
2.35445e+06
2.47624e+06
2.58481e+06
2.67967e+06
2.7604e+06
2.82674e+06
2.87875e+06
2.91729e+06
2.94417e+06
2.97613e+06
3.00722e+06
739335
965974
1.17673e+06
1.37431e+06
1.56027e+06
1.73486e+06
1.89777e+06
2.04855e+06
2.18681e+06
2.31219e+06
2.42439e+06
2.52314e+06
2.60825e+06
2.67961e+06
2.73733e+06
2.7819e+06
2.81472e+06
2.83854e+06
2.87098e+06
2.91045e+06
737473
961097
1.16554e+06
1.35337e+06
1.52694e+06
1.68735e+06
1.83502e+06
1.97018e+06
2.09304e+06
2.20374e+06
2.30243e+06
2.38922e+06
2.46424e+06
2.52776e+06
2.58026e+06
2.62276e+06
2.65744e+06
2.68844e+06
2.73504e+06
2.80163e+06
732194
945275
1.13535e+06
1.30741e+06
1.46555e+06
1.61182e+06
1.7472e+06
1.87228e+06
1.98746e+06
2.09303e+06
2.18917e+06
2.27609e+06
2.35403e+06
2.42343e+06
2.48511e+06
2.54064e+06
2.59317e+06
2.64861e+06
2.72877e+06
2.84379e+06
780603
1.02208e+06
1.2343e+06
1.42756e+06
1.60727e+06
1.77538e+06
1.93271e+06
2.07978e+06
2.21707e+06
2.34524e+06
2.46453e+06
2.57529e+06
2.67806e+06
2.77371e+06
2.8637e+06
2.95049e+06
3.03859e+06
3.13606e+06
3.26793e+06
3.44684e+06
3.28827e+06
3.51287e+06
3.73751e+06
3.96207e+06
4.18524e+06
4.40623e+06
4.62482e+06
4.84096e+06
5.05486e+06
5.26733e+06
5.47862e+06
5.68923e+06
5.89995e+06
6.11182e+06
6.32623e+06
6.54485e+06
6.76974e+06
7.00294e+06
7.24998e+06
7.49116e+06
3.30307e+06
3.56285e+06
3.83252e+06
4.10743e+06
4.38405e+06
4.6599e+06
4.93339e+06
5.20352e+06
5.46969e+06
5.7318e+06
5.99107e+06
6.2476e+06
6.5018e+06
6.75446e+06
7.00672e+06
7.26016e+06
7.51682e+06
7.77894e+06
8.05109e+06
8.32415e+06
736035
952812
1.14721e+06
1.3243e+06
1.48831e+06
1.64147e+06
1.78496e+06
1.91958e+06
2.04599e+06
2.16481e+06
2.2772e+06
2.38376e+06
2.48534e+06
2.58321e+06
2.67934e+06
2.77699e+06
2.88154e+06
3.00175e+06
3.15511e+06
3.34836e+06
664824
723996
795828
874676
957293
1.04138e+06
1.12512e+06
1.20715e+06
1.28651e+06
1.3626e+06
1.43514e+06
1.50396e+06
1.56915e+06
1.63126e+06
1.69145e+06
1.75196e+06
1.81687e+06
1.89326e+06
1.99626e+06
2.13469e+06
673946
734766
800902
868781
936850
1.00419e+06
1.06997e+06
1.13345e+06
1.19397e+06
1.25103e+06
1.30421e+06
1.35324e+06
1.39805e+06
1.43886e+06
1.47637e+06
1.51211e+06
1.54909e+06
1.59279e+06
1.65598e+06
1.74645e+06
677705
744755
818388
894012
969237
1.04261e+06
1.113e+06
1.17951e+06
1.24142e+06
1.29818e+06
1.34936e+06
1.39466e+06
1.4339e+06
1.46717e+06
1.4949e+06
1.51818e+06
1.53931e+06
1.56254e+06
1.59894e+06
1.65421e+06
678374
746557
822676
902237
982519
1.06167e+06
1.1382e+06
1.21091e+06
1.27878e+06
1.34102e+06
1.39698e+06
1.44614e+06
1.48814e+06
1.5228e+06
1.55031e+06
1.57136e+06
1.58771e+06
1.6027e+06
1.62629e+06
1.66214e+06
678527
746713
823161
903678
985622
1.06711e+06
1.14662e+06
1.22284e+06
1.29466e+06
1.36115e+06
1.42152e+06
1.47508e+06
1.52129e+06
1.55981e+06
1.59057e+06
1.61403e+06
1.63153e+06
1.64586e+06
1.66631e+06
1.69497e+06
678604
746716
823087
903682
985952
1.06806e+06
1.14848e+06
1.22594e+06
1.29934e+06
1.36773e+06
1.43028e+06
1.48626e+06
1.53508e+06
1.57629e+06
1.60975e+06
1.63574e+06
1.65546e+06
1.67137e+06
1.69249e+06
1.71994e+06
678649
746722
823008
903542
985826
1.06804e+06
1.1487e+06
1.22652e+06
1.30044e+06
1.36952e+06
1.43293e+06
1.48996e+06
1.54e+06
1.58259e+06
1.61756e+06
1.64515e+06
1.66649e+06
1.68391e+06
1.70636e+06
1.73445e+06
678670
746729
822973
903466
985729
1.06795e+06
1.14865e+06
1.22655e+06
1.3006e+06
1.36986e+06
1.43354e+06
1.49091e+06
1.54136e+06
1.58446e+06
1.62e+06
1.64826e+06
1.67031e+06
1.68849e+06
1.71169e+06
1.74037e+06
678670
746729
822973
903466
985729
1.06795e+06
1.14865e+06
1.22655e+06
1.3006e+06
1.36986e+06
1.43354e+06
1.49091e+06
1.54136e+06
1.58446e+06
1.62e+06
1.64826e+06
1.67031e+06
1.68849e+06
1.7117e+06
1.74037e+06
678649
746722
823008
903542
985826
1.06804e+06
1.1487e+06
1.22652e+06
1.30044e+06
1.36952e+06
1.43293e+06
1.48996e+06
1.54e+06
1.58259e+06
1.61756e+06
1.64515e+06
1.66649e+06
1.68391e+06
1.70636e+06
1.73445e+06
678604
746716
823087
903682
985952
1.06806e+06
1.14848e+06
1.22594e+06
1.29934e+06
1.36773e+06
1.43028e+06
1.48626e+06
1.53508e+06
1.57629e+06
1.60975e+06
1.63574e+06
1.65546e+06
1.67137e+06
1.6925e+06
1.71994e+06
678527
746713
823161
903678
985622
1.06711e+06
1.14662e+06
1.22284e+06
1.29466e+06
1.36115e+06
1.42152e+06
1.47508e+06
1.52129e+06
1.55981e+06
1.59058e+06
1.61403e+06
1.63154e+06
1.64586e+06
1.66632e+06
1.69497e+06
678374
746557
822676
902237
982519
1.06167e+06
1.1382e+06
1.21091e+06
1.27878e+06
1.34102e+06
1.39698e+06
1.44614e+06
1.48814e+06
1.5228e+06
1.55031e+06
1.57136e+06
1.58771e+06
1.6027e+06
1.62629e+06
1.66215e+06
677705
744755
818388
894012
969237
1.04261e+06
1.113e+06
1.17951e+06
1.24142e+06
1.29818e+06
1.34936e+06
1.39465e+06
1.4339e+06
1.46717e+06
1.4949e+06
1.51818e+06
1.53931e+06
1.56254e+06
1.59894e+06
1.65421e+06
673946
734766
800902
868781
936850
1.00419e+06
1.06997e+06
1.13345e+06
1.19397e+06
1.25103e+06
1.30421e+06
1.35324e+06
1.39805e+06
1.43886e+06
1.47637e+06
1.51211e+06
1.54909e+06
1.59279e+06
1.65598e+06
1.74645e+06
664824
723996
795828
874676
957293
1.04138e+06
1.12512e+06
1.20715e+06
1.28651e+06
1.36259e+06
1.43514e+06
1.50395e+06
1.56915e+06
1.63125e+06
1.69144e+06
1.75196e+06
1.81686e+06
1.89325e+06
1.99625e+06
2.13468e+06
736035
952811
1.14721e+06
1.3243e+06
1.48831e+06
1.64147e+06
1.78496e+06
1.91958e+06
2.04599e+06
2.1648e+06
2.27719e+06
2.38375e+06
2.48533e+06
2.5832e+06
2.67933e+06
2.77698e+06
2.88152e+06
3.00174e+06
3.15509e+06
3.34833e+06
3.30307e+06
3.56285e+06
3.83252e+06
4.10743e+06
4.38405e+06
4.65989e+06
4.93338e+06
5.20351e+06
5.46969e+06
5.7318e+06
5.99107e+06
6.24759e+06
6.50179e+06
6.75446e+06
7.00671e+06
7.26016e+06
7.51681e+06
7.77894e+06
8.05108e+06
8.32414e+06
3.30602e+06
3.5752e+06
3.86198e+06
4.16085e+06
4.46704e+06
4.77679e+06
5.08714e+06
5.39578e+06
5.70096e+06
6.00143e+06
6.29641e+06
6.58555e+06
6.86894e+06
7.14707e+06
7.4209e+06
7.69383e+06
7.96775e+06
8.24485e+06
8.5287e+06
8.81634e+06
741403
968980
1.1782e+06
1.37184e+06
1.5526e+06
1.72194e+06
1.88067e+06
2.02946e+06
2.16901e+06
2.30005e+06
2.42343e+06
2.54015e+06
2.65143e+06
2.75886e+06
2.86427e+06
2.97254e+06
3.08896e+06
3.22135e+06
3.38219e+06
3.57732e+06
676074
738647
806871
877384
948852
1.02055e+06
1.09184e+06
1.16215e+06
1.23105e+06
1.29824e+06
1.36361e+06
1.4272e+06
1.48928e+06
1.55069e+06
1.61323e+06
1.67933e+06
1.75305e+06
1.84092e+06
1.95385e+06
2.09939e+06
735230
752072
775620
803452
834318
867592
902717
939099
976162
1.0134e+06
1.05039e+06
1.08694e+06
1.12305e+06
1.15902e+06
1.19572e+06
1.23483e+06
1.27937e+06
1.33448e+06
1.40931e+06
1.5112e+06
745636
769088
794362
820273
846468
872946
899630
926288
952595
978199
1.00277e+06
1.02607e+06
1.04798e+06
1.06866e+06
1.08864e+06
1.10913e+06
1.13244e+06
1.16261e+06
1.20728e+06
1.27279e+06
748353
776141
806415
837315
868000
898156
927519
955757
982491
1.00734e+06
1.02994e+06
1.04999e+06
1.06732e+06
1.08193e+06
1.09416e+06
1.10488e+06
1.1159e+06
1.13043e+06
1.15505e+06
1.19492e+06
748817
777329
809063
842218
875784
909226
942069
973795
1.00385e+06
1.0317e+06
1.05683e+06
1.07879e+06
1.09725e+06
1.11204e+06
1.12329e+06
1.13161e+06
1.1384e+06
1.14631e+06
1.16116e+06
1.18705e+06
748926
777445
809353
843013
877466
912164
946603
980217
1.01239e+06
1.04252e+06
1.06999e+06
1.09425e+06
1.11486e+06
1.13151e+06
1.14418e+06
1.15328e+06
1.15995e+06
1.16645e+06
1.17816e+06
1.19839e+06
748976
777454
809313
843004
877623
912647
947585
981881
1.01493e+06
1.0461e+06
1.07478e+06
1.10037e+06
1.1224e+06
1.14049e+06
1.15454e+06
1.16486e+06
1.17246e+06
1.17938e+06
1.19077e+06
1.20946e+06
749000
777458
809276
842939
877567
912649
947702
982181
1.01549e+06
1.047e+06
1.07611e+06
1.10222e+06
1.12483e+06
1.14357e+06
1.1583e+06
1.1693e+06
1.17751e+06
1.18491e+06
1.19656e+06
1.21505e+06
749000
777458
809276
842939
877567
912649
947702
982181
1.01549e+06
1.047e+06
1.07611e+06
1.10222e+06
1.12483e+06
1.14357e+06
1.1583e+06
1.1693e+06
1.17751e+06
1.18491e+06
1.19656e+06
1.21505e+06
748976
777454
809313
843004
877623
912647
947585
981881
1.01493e+06
1.0461e+06
1.07478e+06
1.10037e+06
1.1224e+06
1.14049e+06
1.15454e+06
1.16486e+06
1.17246e+06
1.17938e+06
1.19077e+06
1.20946e+06
748926
777445
809353
843013
877466
912164
946603
980217
1.01239e+06
1.04252e+06
1.06999e+06
1.09425e+06
1.11486e+06
1.13151e+06
1.14418e+06
1.15328e+06
1.15995e+06
1.16645e+06
1.17816e+06
1.19839e+06
748817
777329
809063
842218
875785
909226
942069
973795
1.00385e+06
1.0317e+06
1.05683e+06
1.07879e+06
1.09725e+06
1.11204e+06
1.12329e+06
1.13161e+06
1.1384e+06
1.14631e+06
1.16116e+06
1.18705e+06
748353
776141
806415
837315
868000
898156
927519
955757
982491
1.00734e+06
1.02994e+06
1.04999e+06
1.06732e+06
1.08193e+06
1.09416e+06
1.10488e+06
1.1159e+06
1.13043e+06
1.15505e+06
1.19492e+06
745636
769088
794362
820273
846468
872946
899630
926288
952594
978198
1.00277e+06
1.02607e+06
1.04798e+06
1.06865e+06
1.08863e+06
1.10913e+06
1.13244e+06
1.16261e+06
1.20728e+06
1.27279e+06
735230
752072
775620
803452
834318
867592
902716
939098
976161
1.01339e+06
1.05039e+06
1.08694e+06
1.12304e+06
1.15902e+06
1.19572e+06
1.23482e+06
1.27936e+06
1.33447e+06
1.4093e+06
1.51119e+06
676074
738647
806870
877384
948852
1.02055e+06
1.09184e+06
1.16215e+06
1.23104e+06
1.29824e+06
1.36361e+06
1.42719e+06
1.48928e+06
1.55069e+06
1.61322e+06
1.67932e+06
1.75304e+06
1.84091e+06
1.95383e+06
2.09937e+06
741403
968980
1.1782e+06
1.37184e+06
1.5526e+06
1.72194e+06
1.88067e+06
2.02946e+06
2.169e+06
2.30004e+06
2.42343e+06
2.54014e+06
2.65142e+06
2.75885e+06
2.86426e+06
2.97253e+06
3.08894e+06
3.22133e+06
3.38217e+06
3.57729e+06
3.30602e+06
3.57519e+06
3.86198e+06
4.16085e+06
4.46703e+06
4.77678e+06
5.08713e+06
5.39577e+06
5.70096e+06
6.00143e+06
6.2964e+06
6.58555e+06
6.86893e+06
7.14707e+06
7.4209e+06
7.69383e+06
7.96775e+06
8.24485e+06
8.52871e+06
8.81634e+06
3.30627e+06
3.5769e+06
3.86756e+06
4.17295e+06
4.48831e+06
4.80982e+06
5.13435e+06
5.45929e+06
5.78249e+06
6.10228e+06
6.41741e+06
6.72712e+06
7.03105e+06
7.32927e+06
7.62232e+06
7.91302e+06
8.20261e+06
8.49303e+06
8.78712e+06
9.08503e+06
743179
973831
1.18955e+06
1.39324e+06
1.5868e+06
1.77088e+06
1.94558e+06
2.11101e+06
2.26737e+06
2.41504e+06
2.55461e+06
2.68692e+06
2.81312e+06
2.93484e+06
3.05429e+06
3.17549e+06
3.30315e+06
3.44415e+06
3.60799e+06
3.80005e+06
680175
749580
826207
905715
986002
1.06591e+06
1.14463e+06
1.22158e+06
1.29641e+06
1.369e+06
1.43943e+06
1.508e+06
1.57532e+06
1.64231e+06
1.7106e+06
1.78311e+06
1.86368e+06
1.95809e+06
2.07462e+06
2.21933e+06
747751
772901
800147
828412
857460
887427
918377
950231
982833
1.01603e+06
1.04972e+06
1.08391e+06
1.11881e+06
1.15503e+06
1.1937e+06
1.23662e+06
1.28676e+06
1.34877e+06
1.42963e+06
1.53528e+06
808801
810959
816697
825081
835402
847300
860537
874871
890059
905880
922170
938882
956123
974241
993982
1.01671e+06
1.04473e+06
1.08177e+06
1.13369e+06
1.20586e+06
817794
826688
835931
845345
854800
864286
873797
883264
892566
901560
910122
918182
925782
933154
940845
949903
962168
980661
1.01032e+06
1.05578e+06
819811
831893
844761
857799
870585
882907
894622
905567
915556
924398
931914
937977
942547
945743
947953
949993
953358
960555
975857
1.0032e+06
820143
832757
846642
861208
875923
890436
904465
917718
929890
940677
949793
956999
962140
965207
966430
966431
966443
968596
976712
994141
820213
832842
846862
861775
877081
892420
907486
921956
935481
947703
958270
966871
973265
977344
979226
979389
978885
979597
985053
998191
820238
832847
846852
861805
877228
892776
908149
923028
937061
949877
961109
970419
977531
982296
984777
985382
985075
985619
990399
1.00214e+06
820238
832847
846852
861805
877228
892776
908149
923028
937061
949877
961109
970419
977531
982296
984777
985382
985076
985619
990399
1.00214e+06
820213
832842
846862
861775
877081
892420
907486
921956
935481
947703
958270
966871
973265
977344
979227
979389
978885
979597
985053
998191
820143
832757
846642
861208
875923
890436
904465
917718
929890
940677
949793
956999
962140
965207
966430
966431
966442
968596
976711
994140
819811
831893
844761
857799
870585
882907
894622
905567
915556
924397
931914
937977
942546
945743
947953
949992
953357
960553
975855
1.0032e+06
817794
826688
835931
845345
854800
864286
873797
883264
892565
901560
910121
918181
925781
933153
940844
949901
962165
980657
1.01031e+06
1.05578e+06
808801
810959
816697
825080
835402
847300
860536
874871
890058
905878
922168
938880
956121
974238
993978
1.0167e+06
1.04472e+06
1.08176e+06
1.13368e+06
1.20585e+06
747751
772901
800146
828411
857460
887427
918377
950230
982831
1.01602e+06
1.04971e+06
1.0839e+06
1.1188e+06
1.15502e+06
1.19369e+06
1.23662e+06
1.28676e+06
1.34876e+06
1.42962e+06
1.53527e+06
680175
749580
826207
905715
986001
1.06591e+06
1.14463e+06
1.22158e+06
1.29641e+06
1.369e+06
1.43943e+06
1.508e+06
1.57532e+06
1.64231e+06
1.71059e+06
1.7831e+06
1.86367e+06
1.95807e+06
2.0746e+06
2.2193e+06
743179
973830
1.18954e+06
1.39324e+06
1.5868e+06
1.77087e+06
1.94558e+06
2.11101e+06
2.26736e+06
2.41503e+06
2.5546e+06
2.68691e+06
2.81311e+06
2.93483e+06
3.05428e+06
3.17547e+06
3.30313e+06
3.44413e+06
3.60796e+06
3.80001e+06
3.30627e+06
3.5769e+06
3.86755e+06
4.17295e+06
4.4883e+06
4.80981e+06
5.13434e+06
5.45928e+06
5.78249e+06
6.10227e+06
6.41741e+06
6.72712e+06
7.03105e+06
7.32927e+06
7.62232e+06
7.91302e+06
8.20262e+06
8.49303e+06
8.78712e+06
9.08503e+06
3.30621e+06
3.57685e+06
3.86815e+06
4.17522e+06
4.49358e+06
4.81967e+06
5.15055e+06
5.48363e+06
5.81664e+06
6.14765e+06
6.47512e+06
6.79787e+06
7.11514e+06
7.42657e+06
7.73222e+06
8.03259e+06
8.32904e+06
8.62528e+06
8.92351e+06
9.22526e+06
743505
974184
1.19063e+06
1.39631e+06
1.59325e+06
1.78208e+06
1.9629e+06
2.13574e+06
2.30068e+06
2.45796e+06
2.60798e+06
2.75141e+06
2.88921e+06
3.02285e+06
3.1544e+06
3.28685e+06
3.4242e+06
3.57333e+06
3.74177e+06
3.93482e+06
680829
751412
830644
914296
999973
1.08618e+06
1.17183e+06
1.25613e+06
1.33857e+06
1.41891e+06
1.49715e+06
1.57359e+06
1.64883e+06
1.72387e+06
1.8003e+06
1.88037e+06
1.96779e+06
2.06781e+06
2.18702e+06
2.33068e+06
750776
780726
813645
847811
882572
917836
953595
989794
1.02637e+06
1.06329e+06
1.1006e+06
1.13851e+06
1.1774e+06
1.21795e+06
1.26125e+06
1.30923e+06
1.36474e+06
1.43189e+06
1.51628e+06
1.62292e+06
819761
830079
840864
852050
863619
875688
888384
901779
915899
930767
946448
963078
980943
1.00057e+06
1.0229e+06
1.04935e+06
1.08218e+06
1.12474e+06
1.18177e+06
1.25785e+06
877485
873758
872295
872567
874026
876334
879315
882856
886873
891309
896158
901503
907544
914675
923596
935457
952081
976256
1.012e+06
1.06337e+06
885138
887430
889562
891579
893404
894991
896332
897421
898232
898738
898930
898848
898632
898580
899242
901559
907053
918076
938098
970685
886717
891527
896500
901347
905783
909621
912755
915109
916610
917187
916788
915403
913105
910105
906835
904080
903140
906057
915922
935907
886967
892206
897973
903977
909847
915291
920100
924102
927133
929041
929691
928992
926930
923619
919385
914878
911233
910274
914833
927800
887008
892275
898169
904447
910746
916762
922263
927047
930915
933668
935127
935145
933653
930702
926548
921759
917373
915092
917611
927661
887008
892275
898169
904447
910746
916762
922263
927047
930915
933668
935127
935145
933653
930702
926548
921759
917373
915092
917611
927661
886967
892206
897973
903977
909847
915291
920100
924102
927133
929041
929691
928992
926930
923619
919385
914878
911233
910273
914832
927798
886717
891527
896500
901347
905783
909621
912755
915109
916610
917187
916788
915403
913105
910104
906835
904079
903139
906056
915920
935904
885138
887430
889562
891579
893403
894990
896332
897420
898232
898738
898929
898847
898631
898578
899240
901557
907051
918072
938093
970678
877485
873757
872295
872567
874025
876334
879315
882856
886872
891308
896157
901501
907542
914673
923593
935453
952076
976249
1.01199e+06
1.06336e+06
819761
830079
840864
852050
863618
875687
888384
901778
915897
930766
946446
963075
980940
1.00057e+06
1.02289e+06
1.04935e+06
1.08217e+06
1.12473e+06
1.18176e+06
1.25783e+06
750776
780726
813644
847811
882571
917835
953594
989792
1.02637e+06
1.06328e+06
1.1006e+06
1.13851e+06
1.17739e+06
1.21795e+06
1.26125e+06
1.30922e+06
1.36473e+06
1.43187e+06
1.51626e+06
1.6229e+06
680829
751412
830643
914296
999973
1.08618e+06
1.17183e+06
1.25613e+06
1.33857e+06
1.4189e+06
1.49715e+06
1.57359e+06
1.64882e+06
1.72386e+06
1.8003e+06
1.88036e+06
1.96778e+06
2.06779e+06
2.187e+06
2.33065e+06
743505
974184
1.19063e+06
1.39631e+06
1.59325e+06
1.78207e+06
1.9629e+06
2.13573e+06
2.30068e+06
2.45796e+06
2.60798e+06
2.7514e+06
2.8892e+06
3.02284e+06
3.15439e+06
3.28683e+06
3.42418e+06
3.57331e+06
3.74174e+06
3.93479e+06
3.30621e+06
3.57685e+06
3.86815e+06
4.17522e+06
4.49357e+06
4.81966e+06
5.15055e+06
5.48362e+06
5.81663e+06
6.14765e+06
6.47512e+06
6.79787e+06
7.11514e+06
7.42657e+06
7.73222e+06
8.0326e+06
8.32905e+06
8.62529e+06
8.92352e+06
9.22527e+06
3.30616e+06
3.57673e+06
3.86811e+06
4.17557e+06
4.4947e+06
4.82205e+06
5.15476e+06
5.49032e+06
5.82652e+06
6.16145e+06
6.49355e+06
6.82157e+06
7.14466e+06
7.46228e+06
7.77432e+06
8.08101e+06
8.38301e+06
8.68286e+06
8.98337e+06
9.28656e+06
743639
974216
1.19065e+06
1.39677e+06
1.59478e+06
1.78541e+06
1.96883e+06
2.14511e+06
2.31436e+06
2.4768e+06
2.63279e+06
2.78292e+06
2.92811e+06
3.06968e+06
3.20955e+06
3.3504e+06
3.49593e+06
3.6515e+06
3.8239e+06
4.01864e+06
680945
751518
831102
915777
1.00324e+06
1.09199e+06
1.18092e+06
1.26918e+06
1.3562e+06
1.44168e+06
1.52554e+06
1.608e+06
1.68957e+06
1.77118e+06
1.85428e+06
1.94099e+06
2.0343e+06
2.13869e+06
2.25979e+06
2.40258e+06
751239
781953
816452
853099
891097
930175
970172
1.01092e+06
1.05226e+06
1.09412e+06
1.13651e+06
1.1796e+06
1.2238e+06
1.26977e+06
1.31865e+06
1.37207e+06
1.43251e+06
1.50367e+06
1.59019e+06
1.69656e+06
822073
835989
850984
866581
882516
898771
915413
932512
950138
968384
987401
1.00743e+06
1.02887e+06
1.05231e+06
1.07867e+06
1.10938e+06
1.14655e+06
1.19316e+06
1.25316e+06
1.33062e+06
886992
890571
894051
897582
901181
904899
908827
913062
917697
922831
928599
935204
942964
952382
964250
979736
1.00058e+06
1.02928e+06
1.06924e+06
1.12408e+06
940669
933828
928640
924741
921710
919252
917197
915454
913975
912746
911808
911274
911374
912498
915284
920719
930286
946148
971273
1.00892e+06
947293
945776
943952
941928
939678
937156
934339
931220
927792
924059
920052
915855
911646
907747
904697
903357
905036
911670
925941
950858
948578
949141
949652
949934
949793
949077
947687
945562
942660
938951
934435
929160
923262
917008
910873
905633
902490
903238
910400
926841
948767
949698
950854
952028
952945
953361
953096
952013
950003
946979
942890
937738
931614
924742
917549
910759
905518
903546
907291
919555
948767
949698
950854
952028
952945
953361
953096
952013
950003
946979
942890
937738
931614
924742
917549
910759
905518
903545
907290
919554
948578
949141
949652
949934
949793
949077
947687
945562
942660
938951
934435
929160
923261
917008
910873
905632
902489
903236
910398
926838
947293
945776
943952
941928
939678
937156
934339
931219
927791
924059
920051
915854
911645
907746
904696
903355
905034
911666
925937
950852
940669
933828
928640
924740
921710
919252
917197
915454
913974
912746
911807
911273
911372
912496
915282
920716
930281
946143
971265
1.00891e+06
886991
890571
894051
897582
901181
904898
908826
913062
917696
922830
928597
935202
942962
952379
964246
979731
1.00057e+06
1.02928e+06
1.06923e+06
1.12407e+06
822073
835989
850984
866580
882516
898771
915412
932511
950136
968382
987398
1.00743e+06
1.02886e+06
1.05231e+06
1.07867e+06
1.10937e+06
1.14654e+06
1.19315e+06
1.25315e+06
1.3306e+06
751239
781953
816451
853098
891096
930174
970171
1.01092e+06
1.05226e+06
1.09412e+06
1.1365e+06
1.1796e+06
1.22379e+06
1.26977e+06
1.31864e+06
1.37206e+06
1.4325e+06
1.50366e+06
1.59017e+06
1.69654e+06
680945
751518
831101
915777
1.00324e+06
1.09199e+06
1.18092e+06
1.26918e+06
1.3562e+06
1.44168e+06
1.52554e+06
1.608e+06
1.68957e+06
1.77118e+06
1.85427e+06
1.94097e+06
2.03428e+06
2.13867e+06
2.25977e+06
2.40255e+06
743639
974216
1.19065e+06
1.39677e+06
1.59478e+06
1.78541e+06
1.96883e+06
2.14511e+06
2.31436e+06
2.4768e+06
2.63278e+06
2.78292e+06
2.9281e+06
3.06967e+06
3.20954e+06
3.35038e+06
3.49591e+06
3.65148e+06
3.82386e+06
4.0186e+06
3.30616e+06
3.57673e+06
3.86811e+06
4.17556e+06
4.49469e+06
4.82204e+06
5.15475e+06
5.49031e+06
5.82651e+06
6.16145e+06
6.49354e+06
6.82157e+06
7.14466e+06
7.46229e+06
7.77432e+06
8.08102e+06
8.38302e+06
8.68288e+06
8.98338e+06
9.28657e+06
3.30613e+06
3.57667e+06
3.86809e+06
4.17574e+06
4.49525e+06
4.82321e+06
5.15683e+06
5.49366e+06
5.83154e+06
6.16857e+06
6.50318e+06
6.8341e+06
7.16039e+06
7.48141e+06
7.79688e+06
8.10688e+06
8.41181e+06
8.71249e+06
9.01195e+06
9.31311e+06
743711
974254
1.19064e+06
1.39685e+06
1.59522e+06
1.78653e+06
1.97103e+06
2.14883e+06
2.32013e+06
2.4852e+06
2.64447e+06
2.79856e+06
2.94839e+06
3.09527e+06
3.24102e+06
3.38812e+06
3.53991e+06
3.70078e+06
3.8768e+06
4.07389e+06
680994
751491
831027
915851
1.00376e+06
1.09331e+06
1.18343e+06
1.27331e+06
1.36241e+06
1.45044e+06
1.53734e+06
1.6233e+06
1.70881e+06
1.79473e+06
1.88238e+06
1.9737e+06
2.07136e+06
2.179e+06
2.30139e+06
2.44364e+06
751320
782028
816718
853929
892921
933427
975278
1.01829e+06
1.0623e+06
1.10719e+06
1.15296e+06
1.19975e+06
1.24791e+06
1.29806e+06
1.35121e+06
1.40889e+06
1.47325e+06
1.54725e+06
1.635e+06
1.74079e+06
822414
836897
853015
870332
888498
907381