/*--------------------------------*- C++ -*----------------------------------*\
  =========                 |
  \\      /  F ield         | OpenFOAM: The Open Source CFD Toolbox
   \\    /   O peration     | Website:  https://openfoam.org
    \\  /    A nd           | Version:  10
     \\/     M anipulation  |
\*---------------------------------------------------------------------------*/
FoamFile
{
    format      ascii;
    class       volScalarField;
    location    "300";
    object      k;
}
// * * * * * * * * * * * * * * * * * * * * * * * * * * * * * * * * * * * * * //

dimensions      [0 2 -2 0 0 0 0];

internalField   nonuniform List<scalar> 
112000
(
461.91
472.446
483.429
494.748
506.222
517.777
529.41
541.136
552.978
564.968
577.145
589.564
602.289
615.4
628.991
643.172
658.069
673.788
690.864
705.247
472.171
493.738
515.03
536.068
556.759
577.068
597.01
616.613
635.909
654.935
673.74
692.386
710.952
729.535
748.254
767.266
786.786
807.116
829.506
850.261
473.484
498.154
523.296
548.5
573.484
598.073
622.178
645.76
668.813
691.354
713.422
735.072
756.381
777.44
798.368
819.314
840.491
862.188
885.765
907.145
473.754
499.264
525.9
553.137
580.56
607.874
634.867
661.398
687.373
712.744
737.498
761.653
785.255
808.376
831.112
853.592
875.993
898.537
922.516
943.201
473.775
499.404
526.361
554.131
582.292
610.537
638.639
666.428
693.783
720.626
746.915
772.643
797.834
822.538
846.834
870.828
894.669
918.526
943.624
964.729
473.769
499.391
526.387
554.275
582.655
611.239
639.814
668.213
696.309
724.01
751.258
778.028
804.325
830.182
855.66
880.852
905.89
930.917
957.14
978.986
473.766
499.374
526.361
554.255
582.662
611.303
639.97
668.507
696.791
724.736
752.289
779.428
806.161
832.521
858.573
884.412
910.172
935.998
963.114
985.804
473.765
499.364
526.34
554.226
582.63
611.273
639.957
668.527
696.867
724.895
752.564
779.853
806.772
833.36
859.682
885.836
911.964
938.215
965.837
989.048
473.764
499.359
526.329
554.208
582.605
611.242
639.921
668.488
696.831
724.868
752.553
779.87
806.832
833.48
859.883
886.145
912.412
938.843
966.704
990.196
473.764
499.357
526.324
554.2
582.593
611.227
639.901
668.465
696.804
724.841
752.528
779.851
806.823
833.488
859.916
886.212
912.526
939.022
966.97
990.57
473.764
499.357
526.324
554.2
582.593
611.227
639.901
668.465
696.804
724.841
752.528
779.851
806.823
833.488
859.916
886.212
912.526
939.022
966.97
990.57
473.764
499.359
526.329
554.208
582.605
611.242
639.921
668.488
696.831
724.868
752.553
779.87
806.832
833.48
859.883
886.145
912.411
938.843
966.703
990.196
473.765
499.364
526.34
554.226
582.63
611.273
639.957
668.527
696.867
724.895
752.564
779.853
806.772
833.36
859.682
885.836
911.963
938.215
965.837
989.048
473.766
499.374
526.361
554.255
582.662
611.303
639.97
668.507
696.791
724.736
752.289
779.428
806.161
832.521
858.573
884.412
910.172
935.998
963.114
985.804
473.769
499.391
526.387
554.275
582.654
611.239
639.814
668.213
696.309
724.01
751.258
778.028
804.325
830.182
855.66
880.852
905.89
930.917
957.14
978.985
473.775
499.404
526.361
554.131
582.292
610.537
638.639
666.428
693.783
720.626
746.915
772.643
797.834
822.538
846.834
870.828
894.669
918.526
943.624
964.729
473.754
499.264
525.9
553.137
580.56
607.874
634.867
661.397
687.373
712.744
737.498
761.653
785.255
808.376
831.112
853.592
875.993
898.537
922.516
943.2
473.484
498.154
523.296
548.5
573.484
598.073
622.178
645.76
668.812
691.354
713.422
735.072
756.38
777.44
798.367
819.314
840.491
862.188
885.765
907.145
472.171
493.738
515.03
536.068
556.759
577.068
597.011
616.613
635.909
654.935
673.74
692.386
710.952
729.535
748.254
767.266
786.786
807.117
829.507
850.262
461.91
472.446
483.429
494.748
506.222
517.777
529.409
541.135
552.978
564.967
577.145
589.563
602.288
615.399
628.99
643.171
658.068
673.787
690.863
705.246
472.05
493.308
514.12
534.513
554.4
573.748
592.57
610.891
628.757
646.254
663.423
680.318
697.015
713.603
730.196
746.924
763.937
781.381
799.651
817.289
709.184
770.016
813.682
847.932
876.312
900.314
920.738
938.149
952.965
965.481
976
984.815
992.242
998.661
1004.58
1010.74
1018.37
1029.55
1050.14
1083.39
721.819
801.009
859.494
904.469
940.398
969.697
993.783
1013.61
1029.87
1043.1
1053.72
1062.09
1068.6
1073.64
1077.77
1081.8
1087.05
1095.83
1115.12
1148.83
727.02
814.814
883.213
937.833
982.358
1018.95
1048.99
1073.47
1093.17
1108.74
1120.69
1129.48
1135.53
1139.29
1141.28
1142.25
1143.41
1146.79
1159.19
1183.66
728.287
818.05
890.046
949.594
999.778
1042.29
1078.17
1108.17
1132.9
1152.89
1168.59
1180.39
1188.68
1193.87
1196.43
1196.99
1196.58
1196.88
1204.22
1220.13
728.567
818.444
890.992
951.73
1003.69
1048.47
1087.01
1119.96
1147.83
1171.02
1189.88
1204.71
1215.81
1223.5
1228.16
1230.31
1230.8
1231.05
1237.04
1249.04
728.694
818.529
891.087
952.047
1004.5
1050.02
1089.57
1123.78
1153.12
1177.97
1198.63
1215.36
1228.41
1238.04
1244.58
1248.5
1250.55
1251.98
1258.62
1269.91
728.769
818.575
891.071
952.011
1004.52
1050.2
1090
1124.57
1154.38
1179.83
1201.2
1218.75
1232.73
1243.38
1251.01
1256.06
1259.26
1261.8
1269.48
1281.33
728.811
818.607
891.063
951.965
1004.46
1050.17
1090.02
1124.69
1154.65
1180.3
1201.93
1219.81
1234.18
1245.29
1253.44
1259.08
1262.94
1266.18
1274.63
1287.12
728.83
818.624
891.062
951.944
1004.43
1050.13
1089.99
1124.68
1154.67
1180.37
1202.07
1220.04
1234.53
1245.79
1254.12
1259.98
1264.09
1267.64
1276.45
1289.3
728.83
818.624
891.062
951.944
1004.43
1050.13
1089.99
1124.68
1154.67
1180.37
1202.07
1220.04
1234.53
1245.79
1254.12
1259.98
1264.09
1267.64
1276.45
1289.3
728.811
818.607
891.063
951.965
1004.46
1050.17
1090.02
1124.69
1154.65
1180.3
1201.93
1219.81
1234.18
1245.29
1253.44
1259.08
1262.94
1266.18
1274.63
1287.12
728.769
818.575
891.071
952.011
1004.52
1050.2
1090
1124.57
1154.38
1179.83
1201.2
1218.75
1232.73
1243.38
1251.01
1256.06
1259.26
1261.8
1269.49
1281.33
728.694
818.529
891.087
952.047
1004.5
1050.02
1089.57
1123.78
1153.12
1177.97
1198.63
1215.36
1228.41
1238.04
1244.58
1248.5
1250.55
1251.98
1258.62
1269.92
728.567
818.444
890.992
951.73
1003.69
1048.47
1087.01
1119.96
1147.83
1171.02
1189.88
1204.71
1215.81
1223.5
1228.16
1230.31
1230.8
1231.05
1237.04
1249.04
728.287
818.05
890.046
949.594
999.778
1042.29
1078.17
1108.17
1132.9
1152.89
1168.59
1180.39
1188.68
1193.87
1196.43
1196.99
1196.58
1196.88
1204.23
1220.13
727.02
814.814
883.213
937.833
982.358
1018.95
1048.99
1073.47
1093.17
1108.74
1120.69
1129.48
1135.53
1139.29
1141.28
1142.25
1143.41
1146.79
1159.2
1183.66
721.819
801.009
859.494
904.469
940.398
969.697
993.782
1013.61
1029.87
1043.1
1053.72
1062.09
1068.6
1073.64
1077.77
1081.8
1087.05
1095.83
1115.12
1148.83
709.184
770.016
813.682
847.931
876.312
900.313
920.738
938.149
952.965
965.481
976
984.815
992.242
998.661
1004.58
1010.74
1018.37
1029.55
1050.14
1083.39
472.05
493.308
514.12
534.513
554.4
573.748
592.569
610.891
628.757
646.254
663.422
680.318
697.014
713.603
730.196
746.924
763.937
781.381
799.651
817.289
473.465
497.975
522.796
547.507
571.821
595.562
618.643
641.024
662.702
683.708
704.173
724.133
743.644
762.787
781.662
800.4
819.154
838.089
857.523
876.804
724.024
804.805
864.829
911.343
948.864
979.851
1005.76
1027.58
1046.05
1061.73
1074.98
1086.26
1096.05
1104.87
1113.43
1122.67
1134.06
1149.84
1174.32
1209
737.806
771.998
809.548
846.782
882.147
914.896
944.651
971.299
994.907
1015.65
1033.79
1049.62
1063.54
1076.09
1088.03
1100.51
1115.36
1135.53
1166.86
1212.28
747.744
787.902
827.604
864.647
898.494
929.102
956.504
980.78
1002.05
1020.49
1036.28
1049.67
1060.96
1070.61
1079.25
1087.96
1098.47
1113.7
1139.8
1180.25
750.814
795.838
841.085
883.582
922.265
956.833
987.24
1013.57
1036
1054.75
1070.07
1082.23
1091.55
1098.45
1103.51
1107.65
1112.39
1120.29
1137.16
1166.16
751.374
797.361
844.512
889.792
931.808
969.942
1003.9
1033.6
1059.05
1080.39
1097.79
1111.46
1121.65
1128.7
1133.1
1135.6
1137.5
1140.95
1151.33
1171.01
751.499
797.53
844.994
891.03
934.246
973.958
1009.8
1041.58
1069.26
1092.87
1112.49
1128.24
1140.31
1148.95
1154.53
1157.69
1159.54
1161.94
1169.89
1185.05
751.557
797.54
844.973
891.107
934.601
974.779
1011.27
1043.89
1072.57
1097.33
1118.2
1135.29
1148.72
1158.71
1165.57
1169.86
1172.59
1175.44
1183.24
1197.15
751.589
797.544
844.922
891.028
934.553
974.835
1011.51
1044.4
1073.44
1098.64
1120.07
1137.79
1151.94
1162.7
1170.37
1175.49
1179.01
1182.56
1190.86
1204.83
751.604
797.547
844.897
890.977
934.495
974.791
1011.5
1044.46
1073.6
1098.94
1120.54
1138.49
1152.9
1163.96
1171.98
1177.48
1181.39
1185.33
1193.99
1208.2
751.604
797.547
844.897
890.977
934.495
974.791
1011.5
1044.46
1073.6
1098.94
1120.54
1138.49
1152.9
1163.96
1171.98
1177.48
1181.39
1185.33
1193.99
1208.2
751.589
797.544
844.922
891.028
934.553
974.835
1011.51
1044.4
1073.44
1098.64
1120.07
1137.79
1151.94
1162.7
1170.37
1175.49
1179.01
1182.56
1190.86
1204.83
751.557
797.54
844.973
891.107
934.601
974.779
1011.27
1043.89
1072.57
1097.32
1118.2
1135.29
1148.72
1158.71
1165.57
1169.86
1172.59
1175.45
1183.24
1197.15
751.499
797.53
844.994
891.03
934.246
973.958
1009.8
1041.58
1069.26
1092.87
1112.49
1128.24
1140.31
1148.95
1154.53
1157.69
1159.54
1161.94
1169.89
1185.05
751.374
797.361
844.512
889.792
931.808
969.942
1003.9
1033.6
1059.05
1080.39
1097.79
1111.46
1121.65
1128.7
1133.1
1135.6
1137.5
1140.95
1151.33
1171.01
750.814
795.838
841.085
883.582
922.265
956.833
987.24
1013.57
1036
1054.75
1070.07
1082.23
1091.55
1098.45
1103.51
1107.65
1112.39
1120.29
1137.16
1166.16
747.744
787.902
827.604
864.647
898.494
929.101
956.504
980.78
1002.05
1020.49
1036.28
1049.67
1060.96
1070.6
1079.25
1087.96
1098.47
1113.7
1139.8
1180.25
737.806
771.998
809.548
846.782
882.147
914.895
944.651
971.298
994.906
1015.65
1033.79
1049.62
1063.54
1076.09
1088.03
1100.51
1115.35
1135.53
1166.86
1212.28
724.024
804.805
864.828
911.343
948.863
979.851
1005.76
1027.58
1046.05
1061.73
1074.98
1086.26
1096.05
1104.87
1113.43
1122.67
1134.06
1149.84
1174.32
1209
473.465
497.975
522.796
547.507
571.82
595.562
618.642
641.023
662.701
683.707
704.173
724.132
743.644
762.787
781.662
800.4
819.154
838.089
857.523
876.804
473.747
499.125
525.472
552.244
579.014
605.48
631.43
656.718
681.253
704.984
727.9
750.017
771.381
792.066
812.171
831.964
851.596
871.227
891.11
911.035
729.302
818.857
889.028
945.524
992.132
1031.11
1063.91
1091.62
1115.1
1135.07
1152.16
1166.96
1180.04
1192.05
1203.72
1215.92
1230.04
1248.11
1273.14
1306.39
749.268
790.531
831.401
869.775
905.202
937.703
967.357
994.279
1018.63
1040.63
1060.53
1078.63
1095.34
1111.23
1127.11
1144.15
1164.15
1189.81
1225.35
1273.23
794.414
807.62
825.403
845.437
866.456
887.798
908.973
929.572
949.274
967.867
985.243
1001.42
1016.57
1031.04
1045.49
1060.99
1079.36
1103.4
1137.82
1185.91
802.674
820.87
840.042
859.171
877.864
896.016
913.506
930.157
945.777
960.201
973.32
985.101
995.63
1005.16
1014.2
1023.68
1035.2
1051.35
1076.73
1114.85
804.812
826.288
849.047
871.579
893.187
913.602
932.641
950.116
965.856
979.72
991.613
1001.5
1009.45
1015.65
1020.51
1024.8
1029.86
1037.95
1053.32
1079.2
805.197
827.3
851.226
875.457
899.134
921.805
943.129
962.793
980.515
996.065
1009.27
1020.03
1028.31
1034.23
1038.09
1040.5
1042.56
1046.21
1055.3
1072.57
805.285
827.424
851.531
876.198
900.586
924.217
946.709
967.7
986.856
1003.88
1018.55
1030.67
1040.17
1047.06
1051.55
1054.11
1055.72
1058.03
1064.61
1077.75
805.323
827.437
851.524
876.241
900.787
924.699
947.597
969.12
988.925
1006.71
1022.21
1035.23
1045.64
1053.42
1058.72
1061.96
1063.99
1066.33
1072.39
1084.16
805.339
827.44
851.5
876.204
900.77
924.741
947.745
969.423
989.44
1007.49
1023.32
1036.71
1047.53
1055.75
1061.5
1065.15
1067.54
1070.13
1076.23
1087.71
805.339
827.44
851.5
876.204
900.77
924.741
947.745
969.423
989.44
1007.49
1023.32
1036.71
1047.53
1055.75
1061.5
1065.15
1067.54
1070.13
1076.23
1087.71
805.323
827.437
851.524
876.241
900.787
924.699
947.597
969.12
988.925
1006.71
1022.21
1035.23
1045.64
1053.42
1058.72
1061.96
1063.99
1066.33
1072.39
1084.16
805.285
827.424
851.531
876.198
900.586
924.217
946.709
967.7
986.856
1003.88
1018.55
1030.67
1040.17
1047.06
1051.55
1054.12
1055.72
1058.03
1064.61
1077.76
805.197
827.3
851.226
875.457
899.134
921.805
943.129
962.793
980.515
996.065
1009.27
1020.03
1028.31
1034.23
1038.09
1040.5
1042.56
1046.21
1055.3
1072.57
804.812
826.288
849.047
871.579
893.187
913.602
932.64
950.116
965.856
979.72
991.613
1001.5
1009.45
1015.65
1020.51
1024.8
1029.86
1037.95
1053.32
1079.19
802.674
820.87
840.042
859.171
877.864
896.016
913.506
930.157
945.776
960.201
973.319
985.1
995.629
1005.16
1014.2
1023.68
1035.2
1051.34
1076.73
1114.85
794.414
807.62
825.402
845.437
866.456
887.798
908.973
929.571
949.274
967.866
985.242
1001.42
1016.57
1031.04
1045.48
1060.99
1079.35
1103.4
1137.82
1185.91
749.268
790.531
831.4
869.774
905.202
937.702
967.356
994.278
1018.63
1040.63
1060.52
1078.63
1095.34
1111.23
1127.1
1144.15
1164.15
1189.8
1225.35
1273.23
729.302
818.857
889.028
945.524
992.131
1031.11
1063.91
1091.62
1115.1
1135.07
1152.16
1166.96
1180.04
1192.04
1203.72
1215.92
1230.04
1248.1
1273.14
1306.39
473.747
499.125
525.472
552.243
579.014
605.48
631.429
656.718
681.252
704.984
727.899
750.016
771.381
792.066
812.171
831.964
851.596
871.227
891.111
911.035
473.771
499.284
525.978
553.314
580.851
608.269
635.331
661.861
687.733
712.86
737.196
760.727
783.471
805.471
826.801
847.691
868.249
888.624
909.021
929.452
730.525
822.104
895.983
957.555
1010
1055.12
1094.04
1127.64
1156.65
1181.71
1203.43
1222.42
1239.27
1254.68
1269.43
1284.37
1300.81
1320.46
1345.58
1377.24
752.607
799.177
846.2
890.807
932.04
969.694
1003.81
1034.57
1062.22
1087.11
1109.62
1130.2
1149.36
1167.75
1186.22
1205.97
1228.66
1256.61
1292.92
1339.49
804.19
823.57
844.067
864.722
885.201
905.455
925.423
944.982
964.004
982.394
1000.13
1017.27
1034.01
1050.77
1068.24
1087.48
1110.18
1138.79
1176.82
1226.83
846.674
849.507
855.321
863.244
872.601
882.998
894.144
905.77
917.625
929.496
941.234
952.789
964.23
975.81
988.05
1001.88
1018.81
1041.22
1072.62
1115.9
853.593
861.24
869.257
877.519
885.9
894.343
902.784
911.12
919.216
926.933
934.161
940.843
947.014
952.861
958.799
965.601
974.592
987.883
1008.79
1040.21
855.166
865.23
875.877
886.65
897.227
907.429
917.126
926.176
934.426
941.728
947.958
953.035
956.957
959.843
962.014
964.105
967.235
973.237
985.128
1005.59
855.44
865.966
877.438
889.387
901.391
913.158
924.452
935.037
944.68
953.162
960.29
965.917
969.967
972.48
973.673
974.048
974.549
976.761
983.421
996.916
855.497
866.058
877.667
889.921
902.411
914.83
926.916
938.403
949.02
958.503
966.611
973.142
977.962
981.043
982.522
982.802
982.696
983.611
988.085
998.249
855.515
866.066
877.676
889.977
902.578
915.179
927.522
939.339
950.351
960.284
968.879
975.915
981.228
984.759
986.605
987.118
987.046
987.708
991.536
1000.52
855.515
866.066
877.676
889.977
902.578
915.179
927.522
939.339
950.351
960.284
968.879
975.915
981.229
984.759
986.605
987.118
987.046
987.708
991.536
1000.52
855.497
866.058
877.667
889.921
902.411
914.83
926.916
938.403
949.02
958.503
966.611
973.142
977.962
981.043
982.522
982.802
982.696
983.611
988.085
998.249
855.44
865.966
877.438
889.387
901.391
913.158
924.452
935.037
944.68
953.162
960.29
965.917
969.967
972.48
973.673
974.048
974.549
976.76
983.42
996.915
855.166
865.23
875.877
886.65
897.227
907.429
917.126
926.176
934.426
941.728
947.958
953.035
956.956
959.843
962.014
964.104
967.234
973.236
985.126
1005.59
853.593
861.24
869.257
877.519
885.9
894.342
902.784
911.12
919.216
926.933
934.161
940.842
947.014
952.86
958.797
965.6
974.59
987.88
1008.78
1040.21
846.674
849.507
855.321
863.243
872.601
882.998
894.144
905.77
917.624
929.495
941.233
952.787
964.229
975.808
988.048
1001.87
1018.81
1041.21
1072.61
1115.89
804.19
823.57
844.067
864.722
885.201
905.455
925.422
944.981
964.003
982.393
1000.13
1017.26
1034.01
1050.77
1068.23
1087.48
1110.17
1138.78
1176.82
1226.82
752.607
799.176
846.2
890.807
932.039
969.694
1003.81
1034.57
1062.22
1087.11
1109.62
1130.19
1149.35
1167.74
1186.21
1205.97
1228.66
1256.6
1292.92
1339.49
730.525
822.104
895.983
957.555
1010
1055.12
1094.04
1127.64
1156.65
1181.71
1203.43
1222.41
1239.27
1254.68
1269.43
1284.37
1300.8
1320.46
1345.58
1377.24
473.771
499.284
525.977
553.314
580.851
608.268
635.33
661.861
687.732
712.859
737.195
760.727
783.471
805.471
826.801
847.691
868.249
888.624
909.021
929.453
473.765
499.279
526.032
553.515
581.305
609.099
636.667
663.827
690.437
716.389
741.609
766.052
789.706
812.584
834.729
856.21
877.148
897.825
918.403
938.992
730.74
822.408
896.832
959.592
1013.82
1061.22
1102.84
1139.46
1171.73
1200.19
1225.39
1247.85
1268.14
1286.87
1304.81
1322.87
1342.19
1364.06
1390.25
1421.85
753.164
800.746
849.782
897.338
942.146
983.712
1021.87
1056.66
1088.25
1116.93
1143.07
1167.11
1189.6
1211.21
1232.81
1255.48
1280.73
1310.52
1347.26
1392.57
806.571
829.589
854.172
878.886
903.129
926.743
949.662
971.822
993.182
1013.75
1033.6
1052.9
1071.95
1091.2
1111.33
1133.42
1158.97
1190.11
1229.52
1279.3
854.971
863.614
872.701
882.185
892.013
902.208
912.789
923.729
934.975
946.477
958.222
970.259
982.744
996.001
1010.61
1027.48
1048
1074.22
1108.86
1154.3
893.947
892.516
892.987
894.896
897.797
901.41
905.573
910.175
915.12
920.337
925.79
931.503
937.593
944.314
952.138
961.855
974.716
992.6
1018.13
1053.74
899.75
902.617
905.446
908.303
911.143
913.929
916.643
919.259
921.738
924.037
926.126
928.013
929.78
931.627
933.944
937.405
943.108
952.736
968.716
993.428
900.972
905.743
910.644
915.49
920.093
924.329
928.124
931.42
934.152
936.259
937.688
938.417
938.484
938.031
937.368
937.061
938.066
941.878
950.729
966.854
901.177
906.317
911.861
917.601
923.275
928.674
933.647
938.064
941.802
944.741
946.775
947.827
947.879
947.006
945.441
943.658
942.493
943.291
948.123
959.078
901.211
906.39
912.055
918.03
924.053
929.901
935.401
940.398
944.736
948.264
950.839
952.348
952.732
952.022
950.403
948.289
946.449
946.139
949.338
958.044
901.211
906.39
912.055
918.03
924.053
929.901
935.401
940.398
944.736
948.264
950.839
952.348
952.732
952.022
950.403
948.289
946.448
946.139
949.338
958.043
901.177
906.317
911.861
917.601
923.275
928.674
933.647
938.064
941.802
944.741
946.775
947.827
947.879
947.006
945.441
943.657
942.492
943.291
948.122
959.077
900.972
905.743
910.644
915.49
920.093
924.329
928.124
931.42
934.152
936.259
937.688
938.417
938.484
938.031
937.367
937.06
938.065
941.877
950.727
966.851
899.75
902.617
905.446
908.303
911.143
913.929
916.642
919.259
921.738
924.037
926.125
928.012
929.779
931.626
933.942
937.403
943.106
952.733
968.713
993.423
893.947
892.515
892.987
894.896
897.797
901.41
905.573
910.174
915.12
920.337
925.789
931.502
937.592
944.312
952.135
961.852
974.713
992.596
1018.12
1053.73
854.971
863.614
872.701
882.184
892.013
902.208
912.788
923.728
934.974
946.476
958.221
970.257
982.742
995.998
1010.61
1027.48
1048
1074.21
1108.85
1154.29
806.571
829.589
854.172
878.886
903.128
926.742
949.661
971.821
993.181
1013.75
1033.6
1052.9
1071.95
1091.2
1111.33
1133.41
1158.97
1190.1
1229.51
1279.29
753.164
800.746
849.781
897.337
942.145
983.712
1021.87
1056.66
1088.25
1116.93
1143.07
1167.11
1189.6
1211.21
1232.8
1255.48
1280.73
1310.52
1347.25
1392.57
730.74
822.408
896.831
959.591
1013.82
1061.22
1102.84
1139.46
1171.72
1200.19
1225.39
1247.85
1268.13
1286.87
1304.8
1322.87
1342.18
1364.06
1390.25
1421.84
473.765
499.279
526.032
553.515
581.305
609.098
636.666
663.827
690.437
716.389
741.608
766.052
789.706
812.584
834.73
856.21
877.149
897.825
918.404
938.993
473.76
499.268
526.028
553.545
581.402
609.299
637.013
664.367
691.219
717.461
743.015
767.832
791.888
815.187
837.756
859.646
880.933
901.817
922.506
943.147
730.82
822.437
896.891
959.921
1014.72
1062.97
1105.74
1143.78
1177.71
1208.06
1235.32
1259.98
1282.56
1303.65
1323.93
1344.25
1365.66
1389.3
1416.57
1448.6
753.263
800.887
850.261
898.629
944.726
988.002
1028.22
1065.36
1099.52
1130.92
1159.89
1186.81
1212.19
1236.65
1260.99
1286.24
1313.7
1345.01
1382.14
1426.65
806.961
830.65
856.508
883.105
909.692
935.955
961.702
986.782
1011.09
1034.61
1057.4
1079.61
1101.54
1123.66
1146.65
1171.44
1199.37
1232.25
1272.24
1321.23
856.771
868.146
880.301
892.874
905.646
918.564
931.629
944.838
958.188
971.695
985.416
999.477
1014.1
1029.66
1046.72
1066.15
1089.23
1117.68
1153.72
1199.41
901.017
904.769
908.524
912.424
916.49
920.751
925.259
930.06
935.191
940.695
946.636
953.127
960.36
968.657
978.536
990.771
1006.51
1027.39
1055.54
1093.07
936.401
932.887
930.726
929.596
929.168
929.213
929.598
930.25
931.125
932.206
933.51
935.108
937.152
939.911
943.827
949.598
958.266
971.34
990.836
1018.86
941.359
941.623
941.701
941.698
941.606
941.393
941.041
940.533
939.857
939.004
937.982
936.842
935.699
934.775
934.452
935.348
938.412
945.038
957.134
976.765
942.345
944.172
945.951
947.573
948.918
949.887
950.416
950.465
950
948.995
947.44
945.363
942.848
940.08
937.395
935.35
934.825
937.129
944.093
957.746
942.5
944.636
946.928
949.23
951.352
953.127
954.432
955.171
955.266
954.657
953.302
951.198
948.402
945.071
941.508
938.235
936.091
936.339
940.769
951.392
942.5
944.636
946.928
949.23
951.352
953.127
954.432
955.171
955.266
954.657
953.302
951.198
948.402
945.071
941.508
938.235
936.091
936.339
940.768
951.391
942.345
944.172
945.951
947.573
948.918
949.886
950.416
950.465
950
948.995
947.44
945.363
942.848
940.08
937.394
935.349
934.824
937.128
944.091
957.744
941.359
941.623
941.701
941.698
941.606
941.393
941.041
940.533
939.857
939.003
937.982
936.842
935.699
934.774
934.451
935.346
938.41
945.036
957.131
976.761
936.401
932.887
930.725
929.596
929.168
929.213
929.598
930.25
931.125
932.205
933.509
935.107
937.151
939.909
943.826
949.595
958.263
971.336
990.831
1018.86
901.017
904.769
908.524
912.424
916.489
920.751
925.259
930.059
935.19
940.694
946.635
953.125
960.358
968.655
978.533
990.768
1006.51
1027.39
1055.53
1093.06
856.771
868.146
880.301
892.873
905.646
918.564
931.629
944.837
958.187
971.694
985.415
999.475
1014.1
1029.66
1046.72
1066.15
1089.22
1117.67
1153.71
1199.4
806.961
830.65
856.508
883.104
909.692
935.955
961.701
986.781
1011.09
1034.61
1057.39
1079.61
1101.54
1123.66
1146.64
1171.44
1199.37
1232.24
1272.23
1321.22
753.263
800.886
850.261
898.628
944.726
988.002
1028.22
1065.36
1099.52
1130.92
1159.89
1186.81
1212.19
1236.65
1260.98
1286.23
1313.69
1345.01
1382.14
1426.64
730.82
822.437
896.89
959.921
1014.72
1062.97
1105.74
1143.78
1177.71
1208.06
1235.32
1259.98
1282.56
1303.65
1323.93
1344.25
1365.65
1389.3
1416.57
1448.59
473.76
499.268
526.028
553.545
581.402
609.298
637.012
664.366
691.219
717.461
743.015
767.831
791.888
815.187
837.757
859.647
880.934
901.817
922.506
943.148
473.758
499.262
526.026
553.56
581.449
609.397
637.184
664.636
691.616
718.013
743.75
768.771
793.05
816.579
839.377
861.48
882.95
903.866
924.461
944.944
730.863
822.454
896.883
959.965
1014.93
1063.49
1106.71
1145.35
1180.05
1211.34
1239.72
1265.67
1289.7
1312.36
1334.31
1356.32
1379.33
1404.46
1432.86
1465.63
753.301
800.877
850.244
898.756
945.205
989.052
1030.07
1068.22
1103.61
1136.45
1167.03
1195.73
1223
1249.44
1275.77
1302.91
1332.02
1364.52
1402.04
1446.14
807.03
830.749
856.808
883.893
911.281
938.638
965.745
992.423
1018.54
1044.04
1068.95
1093.41
1117.67
1142.14
1167.44
1194.43
1224.27
1258.45
1298.8
1347.13
857.057
868.932
882.006
895.915
910.356
925.18
940.309
955.686
971.273
987.064
1003.11
1019.52
1036.53
1054.5
1073.98
1095.74
1120.89
1150.92
1187.69
1233.14
902.453
908.391
914.605
920.998
927.47
933.998
940.618
947.392
954.393
961.705
969.444
977.772
986.928
997.262
1009.29
1023.74
1041.66
1064.47
1094
1132.22
942.525
943.585
944.478
945.374
946.321
947.343
948.474
949.76
951.251
953.007
955.118
957.715
961.006
965.303
971.074
979.009
990.084
1005.65
1027.45
1057.48
974.833
970.138
966.527
963.732
961.484
959.581
957.894
956.352
954.922
953.599
952.421
951.475
950.926
951.05
952.273
955.237
960.872
970.477
985.766
1008.74
979.159
977.809
976.246
974.554
972.726
970.73
968.535
966.123
963.491
960.649
957.635
954.533
951.497
948.784
946.805
946.18
947.818
953.002
963.444
981.174
979.965
979.905
979.687
979.203
978.359
977.079
975.312
973.038
970.256
966.987
963.28
959.225
954.983
950.814
947.129
944.547
943.979
946.711
954.466
969.307
979.965
979.905
979.687
979.203
978.359
977.079
975.312
973.038
970.256
966.987
963.28
959.225
954.983
950.814
947.128
944.547
943.979
946.71
954.465
969.306
979.159
977.809
976.246
974.554
972.726
970.73
968.535
966.123
963.491
960.649
957.635
954.533
951.496
948.784
946.804
946.179
947.816
953
963.442
981.171
974.833
970.138
966.527
963.732
961.484
959.58
957.894
956.352
954.921
953.599
952.42
951.474
950.925
951.048
952.271
955.235
960.869
970.473
985.762
1008.74
942.525
943.585
944.478
945.373
946.321
947.343
948.474
949.76
951.25
953.006
955.117
957.714
961.005
965.301
971.072
979.006
990.08
1005.64
1027.44
1057.48
902.453
908.391
914.605
920.997
927.47
933.998
940.618
947.392
954.392
961.704
969.443
977.77
986.925
997.26
1009.28
1023.73
1041.65
1064.47
1093.99
1132.21
857.057
868.932
882.005
895.914
910.356
925.179
940.308
955.686
971.272
987.063
1003.1
1019.52
1036.53
1054.5
1073.97
1095.74
1120.88
1150.91
1187.68
1233.13
807.03
830.749
856.808
883.893
911.281
938.637
965.744
992.422
1018.54
1044.04
1068.95
1093.41
1117.66
1142.14
1167.44
1194.43
1224.27
1258.44
1298.79
1347.12
753.301
800.877
850.243
898.756
945.204
989.051
1030.07
1068.22
1103.61
1136.45
1167.03
1195.72
1223
1249.44
1275.77
1302.9
1332.01
1364.51
1402.03
1446.13
730.863
822.454
896.882
959.965
1014.93
1063.49
1106.7
1145.35
1180.05
1211.34
1239.72
1265.67
1289.69
1312.35
1334.3
1356.32
1379.33
1404.46
1432.85
1465.62
473.758
499.262
526.026
553.56
581.449
609.397
637.183
664.636
691.615
718.013
743.749
768.771
793.05
816.58
839.377
861.481
882.95
903.868
924.462
944.945
473.755
499.26
526.031
553.581
581.497
609.482
637.318
664.833
691.887
718.371
744.205
769.333
793.723
817.365
840.269
862.463
883.997
904.935
925.358
945.568
730.882
822.476
896.914
960.048
1015.14
1063.91
1107.43
1146.48
1181.7
1213.64
1242.8
1269.65
1294.71
1318.53
1341.72
1365.01
1389.26
1415.46
1444.77
1478.24
753.319
800.874
850.217
898.762
945.335
989.417
1030.79
1069.42
1105.44
1139.05
1170.55
1200.31
1228.77
1256.48
1284.12
1312.52
1342.72
1375.95
1413.67
1457.47
807.05
830.74
856.792
883.966
911.578
939.311
966.958
994.343
1021.34
1047.89
1074
1099.8
1125.52
1151.52
1178.37
1206.82
1237.88
1272.84
1313.31
1361.08
857.1
869.005
882.231
896.49
911.496
927.093
943.189
959.713
976.609
993.854
1011.48
1029.57
1048.35
1068.12
1089.38
1112.85
1139.49
1170.59
1207.78
1253
902.672
909.015
915.955
923.386
931.146
939.141
947.352
955.799
964.529
973.613
983.157
993.321
1004.34
1016.56
1030.47
1046.77
1066.39
1090.62
1121.08
1159.8
943.709
946.59
949.53
952.5
955.454
958.374
961.283
964.235
967.306
970.59
974.209
978.336
983.213
989.182
996.728
1006.53
1019.52
1036.95
1060.47
1092.12
980.225
979.596
978.76
977.859
976.94
976.011
975.089
974.201
973.392
972.727
972.304
972.272
972.85
974.367
977.292
982.297
990.307
1002.58
1020.78
1046.98
1009.95
1004.47
999.875
995.896
992.292
988.887
985.575
982.303
979.061
975.882
972.84
970.069
967.781
966.301
966.103
967.865
972.533
981.392
996.13
1018.88
1013.7
1010.99
1007.89
1004.49
1000.82
996.89
992.734
988.382
983.886
979.317
974.776
970.418
966.47
963.267
961.297
961.251
964.096
971.141
984.104
1005.16
1013.7
1010.99
1007.89
1004.49
1000.82
996.89
992.734
988.382
983.886
979.316
974.776
970.418
966.47
963.267
961.296
961.251
964.095
971.14
984.103
1005.16
1009.95
1004.47
999.875
995.896
992.292
988.887
985.575
982.302
979.061
975.882
972.84
970.068
967.781
966.3
966.102
967.863
972.531
981.39
996.127
1018.88
980.225
979.596
978.76
977.859
976.939
976.011
975.089
974.2
973.391
972.726
972.303
972.271
972.849
974.365
977.29
982.294
990.303
1002.58
1020.77
1046.97
943.709
946.589
949.53
952.5
955.454
958.373
961.282
964.235
967.306
970.589
974.208
978.335
983.211
989.179
996.726
1006.53
1019.52
1036.95
1060.46
1092.11
902.672
909.015
915.954
923.386
931.146
939.141
947.351
955.798
964.529
973.612
983.156
993.319
1004.34
1016.56
1030.47
1046.76
1066.39
1090.61
1121.07
1159.79
857.1
869.005
882.23
896.49
911.496
927.092
943.189
959.712
976.608
993.853
1011.47
1029.57
1048.34
1068.12
1089.38
1112.85
1139.48
1170.58
1207.77
1252.99
807.05
830.739
856.792
883.965
911.577
939.311
966.957
994.342
1021.34
1047.89
1074
1099.8
1125.52
1151.52
1178.37
1206.81
1237.87
1272.83
1313.29
1361.07
753.319
800.874
850.217
898.761
945.335
989.416
1030.79
1069.42
1105.44
1139.05
1170.55
1200.31
1228.76
1256.47
1284.11
1312.51
1342.71
1375.94
1413.66
1457.45
730.882
822.476
896.913
960.047
1015.14
1063.91
1107.43
1146.48
1181.7
1213.64
1242.79
1269.65
1294.71
1318.53
1341.71
1365.01
1389.25
1415.46
1444.77
1478.23
473.755
499.26
526.03
553.581
581.496
609.482
637.318
664.832
691.886
718.371
744.205
769.333
793.724
817.366
840.269
862.464
883.998
904.937
925.36
945.569
473.753
499.259
526.039
553.607
581.549
609.571
637.454
665.024
692.143
718.701
744.614
769.824
794.295
818.01
840.972
863.201
884.731
905.613
925.907
945.708
730.883
822.494
896.969
960.182
1015.41
1064.38
1108.17
1147.58
1183.24
1215.71
1245.51
1273.1
1299.01
1323.76
1347.96
1372.29
1397.54
1424.6
1454.53
1488.59
753.323
800.878
850.231
898.82
945.492
989.738
1031.35
1070.3
1106.72
1140.83
1172.93
1203.38
1232.62
1261.18
1289.7
1318.94
1349.84
1383.5
1421.24
1464.71
807.051
830.725
856.77
883.975
911.679
939.577
967.469
995.192
1022.62
1049.71
1076.47
1103.01
1129.55
1156.44
1184.18
1213.46
1245.2
1280.53
1320.91
1368.24
857.102
868.989
882.224
896.558
911.727
927.585
944.047
961.047
978.53
996.472
1014.89
1033.89
1053.63
1074.43
1096.75
1121.22
1148.74
1180.49
1217.97
1263.27
902.694
909.069
916.141
923.845
932.026
940.579
949.472
958.714
968.336
978.398
988.998
1000.29
1012.49
1025.95
1041.13
1058.72
1079.61
1105.01
1136.51
1176.29
943.877
947.098
950.627
954.409
958.34
962.344
966.401
970.535