/*--------------------------------*- C++ -*----------------------------------*\
  =========                 |
  \\      /  F ield         | OpenFOAM: The Open Source CFD Toolbox
   \\    /   O peration     | Website:  https://openfoam.org
    \\  /    A nd           | Version:  10
     \\/     M anipulation  |
\*---------------------------------------------------------------------------*/
FoamFile
{
    format      ascii;
    class       volScalarField;
    location    "300";
    object      nut;
}
// * * * * * * * * * * * * * * * * * * * * * * * * * * * * * * * * * * * * * //

dimensions      [0 2 -1 0 0 0 0];

internalField   nonuniform List<scalar> 
112000
(
0.00603303
0.00610145
0.00617196
0.0062438
0.00631578
0.00638746
0.00645881
0.00652995
0.00660102
0.00667219
0.00674372
0.00681588
0.00688905
0.00696363
0.0070401
0.00711902
0.007201
0.00728649
0.00737825
0.00745465
0.00609967
0.00623742
0.00637049
0.0064993
0.00662354
0.00674327
0.00685879
0.00697049
0.00707871
0.00718383
0.00728623
0.00738637
0.00748474
0.00758193
0.00767859
0.00777552
0.00787381
0.00797489
0.00808475
0.00818527
0.00610814
0.00626525
0.00642141
0.00657424
0.00672229
0.0068649
0.00700187
0.00713333
0.00725954
0.00738086
0.00749773
0.00761065
0.00772017
0.00782691
0.00793155
0.00803493
0.00813811
0.00824248
0.00835441
0.00845464
0.00610989
0.00627223
0.00643737
0.00660196
0.00676364
0.00692092
0.00707291
0.00721918
0.00735958
0.00749417
0.0076232
0.00774704
0.00786615
0.00798111
0.00809257
0.00820129
0.0083082
0.00841443
0.00852597
0.00862102
0.00611002
0.00627311
0.00644019
0.00660789
0.00677372
0.00693606
0.00709389
0.00724658
0.00739382
0.00753549
0.00767171
0.00780273
0.0079289
0.00805072
0.00816876
0.00828368
0.0083963
0.00850751
0.00862296
0.00871886
0.00610999
0.00627303
0.00644035
0.00660875
0.00677583
0.00694004
0.00710041
0.00725629
0.00740727
0.00755317
0.00769399
0.00782987
0.00796109
0.00808804
0.00821122
0.00833121
0.00844879
0.0085647
0.00868449
0.00878304
0.00610996
0.00627292
0.00644019
0.00660863
0.00677587
0.00694041
0.00710128
0.00725788
0.00740983
0.00755695
0.00769926
0.00783691
0.00797017
0.00809943
0.00822518
0.00834803
0.00846874
0.00858805
0.00871156
0.00881358
0.00610996
0.00627286
0.00644006
0.00660846
0.00677568
0.00694024
0.00710121
0.00725799
0.00741023
0.00755778
0.00770067
0.00783904
0.00797319
0.00810351
0.00823049
0.00835475
0.00847707
0.00859821
0.00872386
0.00882807
0.00610995
0.00627283
0.00643999
0.00660835
0.00677554
0.00694006
0.00710101
0.00725778
0.00741004
0.00755764
0.00770062
0.00783913
0.00797349
0.00810409
0.00823145
0.00835621
0.00847915
0.00860109
0.00872777
0.00883319
0.00610995
0.00627281
0.00643996
0.0066083
0.00677547
0.00693997
0.0071009
0.00725765
0.0074099
0.0075575
0.00770049
0.00783903
0.00797344
0.00810413
0.00823161
0.00835653
0.00847968
0.00860191
0.00872898
0.00883486
0.00610995
0.00627281
0.00643996
0.0066083
0.00677547
0.00693997
0.0071009
0.00725765
0.0074099
0.0075575
0.00770048
0.00783903
0.00797344
0.00810413
0.00823161
0.00835653
0.00847968
0.00860191
0.00872898
0.00883486
0.00610995
0.00627283
0.00643999
0.00660835
0.00677554
0.00694006
0.00710101
0.00725778
0.00741004
0.00755764
0.00770062
0.00783913
0.00797349
0.00810409
0.00823145
0.00835621
0.00847915
0.00860109
0.00872777
0.00883319
0.00610996
0.00627286
0.00644006
0.00660846
0.00677568
0.00694024
0.00710121
0.00725799
0.00741023
0.00755778
0.00770067
0.00783904
0.00797319
0.00810351
0.00823049
0.00835475
0.00847707
0.00859821
0.00872386
0.00882807
0.00610996
0.00627292
0.00644019
0.00660863
0.00677587
0.00694041
0.00710128
0.00725788
0.00740983
0.00755695
0.00769926
0.00783691
0.00797017
0.00809943
0.00822518
0.00834803
0.00846874
0.00858805
0.00871156
0.00881357
0.00610999
0.00627303
0.00644035
0.00660875
0.00677583
0.00694004
0.00710041
0.00725629
0.00740727
0.00755317
0.00769399
0.00782987
0.00796109
0.00808804
0.00821122
0.00833121
0.00844879
0.0085647
0.00868449
0.00878304
0.00611002
0.00627311
0.00644019
0.00660789
0.00677372
0.00693606
0.00709389
0.00724658
0.00739382
0.00753549
0.00767171
0.00780272
0.0079289
0.00805072
0.00816876
0.00828368
0.0083963
0.00850751
0.00862296
0.00871886
0.00610989
0.00627223
0.00643737
0.00660196
0.00676364
0.00692091
0.00707291
0.00721918
0.00735958
0.00749417
0.0076232
0.00774703
0.00786615
0.00798111
0.00809257
0.00820128
0.0083082
0.00841443
0.00852597
0.00862102
0.00610814
0.00626525
0.00642141
0.00657424
0.00672229
0.0068649
0.00700187
0.00713333
0.00725954
0.00738086
0.00749773
0.00761065
0.00772017
0.00782691
0.00793155
0.00803493
0.00813811
0.00824248
0.00835441
0.00845464
0.00609967
0.00623742
0.00637049
0.0064993
0.00662354
0.00674327
0.00685879
0.00697049
0.00707872
0.00718383
0.00728623
0.00738637
0.00748475
0.00758193
0.00767859
0.00777553
0.00787382
0.0079749
0.00808475
0.00818527
0.00603303
0.00610145
0.00617196
0.0062438
0.00631578
0.00638746
0.00645881
0.00652995
0.00660101
0.00667219
0.00674371
0.00681588
0.00688904
0.00696362
0.0070401
0.00711902
0.00720099
0.00728649
0.00737824
0.00745464
0.00609889
0.0062347
0.00636486
0.00648987
0.0066095
0.00672384
0.00683324
0.00693807
0.00703879
0.00713606
0.00723023
0.00732172
0.00741102
0.00749869
0.00758537
0.00767176
0.00775864
0.00784672
0.00793793
0.00802499
0.057987
0.0522104
0.0482758
0.0453282
0.0430004
0.0410902
0.0394773
0.0380863
0.0368652
0.0357719
0.0347862
0.0338942
0.033087
0.0323606
0.0317161
0.0311619
0.0307171
0.0304195
0.0303713
0.0306469
0.0640432
0.0610884
0.0585599
0.0563143
0.0543083
0.0525049
0.0508726
0.049387
0.0480298
0.0467865
0.0456468
0.0446045
0.0436574
0.0428087
0.0420681
0.0414562
0.0410117
0.0408049
0.0410125
0.0417691
0.0645044
0.0621716
0.0602346
0.0584895
0.0568802
0.0553791
0.0539689
0.0526397
0.0513858
0.0502043
0.0490939
0.0480557
0.0470933
0.0462142
0.0454323
0.044772
0.0442771
0.0440258
0.0442173
0.0450073
0.0645663
0.0623501
0.0605885
0.059052
0.0576569
0.0563578
0.0551278
0.0539518
0.0528224
0.0517367
0.0506948
0.0496994
0.0487558
0.0478727
0.0470641
0.0463536
0.0457817
0.0454201
0.0454598
0.0460354
0.0645774
0.0623751
0.0606489
0.0591728
0.0578575
0.0566508
0.0555198
0.0544444
0.0534126
0.052418
0.0514581
0.0505332
0.0496471
0.0488069
0.0480249
0.0473221
0.0467349
0.0463267
0.0462766
0.0466904
0.0645812
0.0623786
0.0606561
0.0591932
0.0579013
0.0567274
0.0556371
0.0546089
0.0536291
0.0526893
0.051785
0.0509152
0.0500818
0.0492904
0.0485519
0.047885
0.0473234
0.0469254
0.0468625
0.0472192
0.0645832
0.0623794
0.0606552
0.0591929
0.0579054
0.0567396
0.0556615
0.0546494
0.0536896
0.0527733
0.0518957
0.0510551
0.0502528
0.0494938
0.0487881
0.0481536
0.0476225
0.0472513
0.0472083
0.0475671
0.0645843
0.0623799
0.0606541
0.0591907
0.0579033
0.056739
0.0556639
0.0546564
0.053703
0.052795
0.0519278
0.0510994
0.0503113
0.0495682
0.04888
0.0482645
0.0477536
0.0474032
0.0473812
0.0477561
0.0645848
0.0623802
0.0606537
0.0591895
0.0579017
0.0567375
0.0556628
0.0546564
0.0537045
0.0527988
0.0519345
0.0511101
0.0503268
0.0495895
0.048908
0.0483004
0.0477985
0.0474581
0.0474473
0.0478331
0.0645848
0.0623802
0.0606537
0.0591895
0.0579017
0.0567375
0.0556628
0.0546564
0.0537045
0.0527988
0.0519345
0.0511101
0.0503268
0.0495895
0.048908
0.0483004
0.0477985
0.0474581
0.0474473
0.0478331
0.0645843
0.0623799
0.0606541
0.0591907
0.0579033
0.056739
0.0556639
0.0546564
0.053703
0.052795
0.0519278
0.0510994
0.0503113
0.0495682
0.04888
0.0482645
0.0477536
0.0474032
0.0473812
0.0477561
0.0645832
0.0623794
0.0606552
0.0591929
0.0579054
0.0567396
0.0556615
0.0546494
0.0536896
0.0527733
0.0518957
0.0510551
0.0502528
0.0494938
0.0487881
0.0481536
0.0476226
0.0472513
0.0472083
0.0475671
0.0645812
0.0623786
0.0606561
0.0591932
0.0579013
0.0567274
0.0556371
0.0546089
0.0536291
0.0526893
0.051785
0.0509152
0.0500818
0.0492904
0.0485519
0.047885
0.0473234
0.0469254
0.0468625
0.0472192
0.0645774
0.0623751
0.0606489
0.0591728
0.0578575
0.0566508
0.0555198
0.0544444
0.0534126
0.052418
0.0514581
0.0505332
0.0496471
0.0488069
0.0480249
0.0473221
0.0467349
0.0463267
0.0462766
0.0466905
0.0645663
0.0623501
0.0605885
0.059052
0.0576569
0.0563578
0.0551278
0.0539518
0.0528224
0.0517367
0.0506948
0.0496994
0.0487558
0.0478727
0.0470641
0.0463536
0.0457817
0.0454201
0.0454598
0.0460354
0.0645044
0.0621716
0.0602346
0.0584895
0.0568802
0.0553791
0.0539689
0.0526397
0.0513858
0.0502043
0.0490939
0.0480557
0.0470932
0.0462142
0.0454323
0.044772
0.0442771
0.0440258
0.0442173
0.0450073
0.0640432
0.0610884
0.0585599
0.0563143
0.0543083
0.0525049
0.0508726
0.049387
0.0480298
0.0467865
0.0456468
0.0446045
0.0436574
0.0428087
0.0420681
0.0414562
0.0410117
0.040805
0.0410126
0.0417692
0.057987
0.0522104
0.0482758
0.0453282
0.0430004
0.0410902
0.0394773
0.0380863
0.0368652
0.035772
0.0347863
0.0338942
0.033087
0.0323606
0.0317162
0.031162
0.0307172
0.0304196
0.0303715
0.0306471
0.00609889
0.0062347
0.00636486
0.00648987
0.0066095
0.00672384
0.00683324
0.00693807
0.00703879
0.00713606
0.00723023
0.00732172
0.00741102
0.00749869
0.00758537
0.00767176
0.00775864
0.00784672
0.00793793
0.00802499
0.00610803
0.00626413
0.00641835
0.00656828
0.00671254
0.00685047
0.00698195
0.00710712
0.0072263
0.00733993
0.00744897
0.00755381
0.0076549
0.0077528
0.00784814
0.00794164
0.00803414
0.00812647
0.00822015
0.00831205
0.0640989
0.061181
0.0586758
0.0564444
0.0544449
0.0526416
0.0510038
0.0495074
0.0481335
0.0468653
0.0456712
0.0445503
0.0435028
0.0425314
0.0416429
0.0408484
0.0401688
0.0396407
0.0393367
0.0392883
0.0736921
0.0740865
0.0741155
0.0737799
0.073161
0.07234
0.0713819
0.0703374
0.0692458
0.0681344
0.067021
0.065928
0.0648764
0.0638882
0.0629894
0.0622162
0.0616234
0.0612953
0.0613851
0.0619606
0.0746661
0.0760392
0.0769676
0.077448
0.0775538
0.0773666
0.0769563
0.0763809
0.0756886
0.0749191
0.0741057
0.0732778
0.0724636
0.0716938
0.0710057
0.0704502
0.0701037
0.0700845
0.0706066
0.0717853
0.0748629
0.0765383
0.077797
0.0785946
0.0789813
0.0790304
0.0788122
0.0783883
0.0778116
0.0771269
0.0763722
0.0755811
0.0747848
0.0740161
0.0733141
0.0727318
0.0723484
0.0722885
0.0727874
0.0739893
0.0749008
0.0766459
0.0780235
0.0789767
0.0795343
0.0797526
0.0796904
0.0794023
0.0789371
0.0783377
0.0776412
0.0768808
0.0760875
0.0752931
0.0745346
0.0738611
0.0733453
0.0731016
0.0733571
0.0742503
0.0749088
0.0766624
0.0780665
0.0790703
0.0796994
0.080004
0.0800371
0.0798478
0.0794799
0.078972
0.0783575
0.0776665
0.076927
0.0761678
0.0754221
0.074734
0.0741685
0.0738273
0.0739218
0.074568
0.0749117
0.0766641
0.0780698
0.0790837
0.0797332
0.0800684
0.080141
0.0799989
0.0796844
0.0792339
0.078679
0.0780473
0.0773647
0.0766574
0.0759559
0.0753004
0.0747507
0.0744001
0.074449
0.0749937
0.0749132
0.0766642
0.0780678
0.0790818
0.0797352
0.0800785
0.0801636
0.0800387
0.0797458
0.0793213
0.0787961
0.0781973
0.0775498
0.0768788
0.0762134
0.075592
0.0750719
0.0747425
0.0747982
0.0753239
0.0749139
0.0766642
0.0780665
0.0790796
0.0797332
0.080078
0.0801663
0.080046
0.0797598
0.079344
0.0788295
0.0782435
0.0776106
0.0769558
0.0763079
0.0757048
0.0752027
0.0748896
0.074958
0.0754877
0.0749139
0.0766642
0.0780665
0.0790796
0.0797332
0.080078
0.0801663
0.080046
0.0797598
0.079344
0.0788295
0.0782435
0.0776106
0.0769558
0.0763079
0.0757048
0.0752027
0.0748896
0.074958
0.0754878
0.0749132
0.0766642
0.0780678
0.0790818
0.0797352
0.0800785
0.0801636
0.0800387
0.0797458
0.0793213
0.0787961
0.0781973
0.0775498
0.0768788
0.0762134
0.075592
0.0750719
0.0747425
0.0747982
0.075324
0.0749117
0.0766641
0.0780698
0.0790837
0.0797332
0.0800684
0.080141
0.0799989
0.0796844
0.0792339
0.078679
0.0780473
0.0773647
0.0766574
0.075956
0.0753004
0.0747507
0.0744002
0.074449
0.0749938
0.0749088
0.0766624
0.0780665
0.0790703
0.0796994
0.080004
0.0800371
0.0798478
0.0794799
0.078972
0.0783575
0.0776665
0.076927
0.0761678
0.0754222
0.074734
0.0741685
0.0738273
0.0739218
0.074568
0.0749008
0.0766459
0.0780235
0.0789767
0.0795343
0.0797526
0.0796904
0.0794023
0.0789371
0.0783377
0.0776412
0.0768808
0.0760875
0.0752931
0.0745346
0.0738611
0.0733453
0.0731016
0.0733571
0.0742503
0.0748629
0.0765383
0.077797
0.0785946
0.0789813
0.0790304
0.0788122
0.0783883
0.0778116
0.0771269
0.0763722
0.0755811
0.0747848
0.0740161
0.0733141
0.0727317
0.0723484
0.0722885
0.0727874
0.0739893
0.0746661
0.0760392
0.0769676
0.077448
0.0775538
0.0773666
0.0769563
0.0763809
0.0756886
0.0749191
0.0741057
0.0732777
0.0724636
0.0716938
0.0710057
0.0704502
0.0701038
0.0700846
0.0706067
0.0717854
0.0736921
0.0740865
0.0741155
0.0737799
0.073161
0.0723399
0.0713819
0.0703373
0.0692458
0.0681344
0.067021
0.0659281
0.0648764
0.0638882
0.0629895
0.0622163
0.0616235
0.0612955
0.0613853
0.0619608
0.0640989
0.061181
0.0586758
0.0564444
0.0544449
0.0526416
0.0510038
0.0495074
0.0481336
0.0468654
0.0456713
0.0445504
0.0435029
0.0425315
0.041643
0.0408485
0.040169
0.0396409
0.0393369
0.0392886
0.00610803
0.00626413
0.00641834
0.00656828
0.00671254
0.00685047
0.00698195
0.00710712
0.0072263
0.00733993
0.00744897
0.00755381
0.0076549
0.0077528
0.00784813
0.00794164
0.00803414
0.00812647
0.00822015
0.00831205
0.00610984
0.00627136
0.00643475
0.00659663
0.00675463
0.00690728
0.00705374
0.0071936
0.00732674
0.00745326
0.00757343
0.00768763
0.00779635
0.00790019
0.00799983
0.00809672
0.00819169
0.00828557
0.00837959
0.00847275
0.0645659
0.0622793
0.0603748
0.0586521
0.0570586
0.055569
0.0541676
0.0528448
0.0515949
0.050414
0.0492993
0.0482498
0.0472668
0.0463553
0.0455279
0.0447633
0.0440831
0.043522
0.0431315
0.0429371
0.0747348
0.0761454
0.0771009
0.0776008
0.0777204
0.0775421
0.0771359
0.076559
0.0758584
0.0750723
0.0742325
0.0733675
0.0725045
0.0716678
0.0708724
0.0701574
0.0695773
0.0692086
0.0691627
0.0694968
0.0772526
0.0780544
0.0790542
0.0800654
0.0809849
0.0817627
0.0823746
0.0828127
0.0830815
0.0831945
0.083172
0.083037
0.0828169
0.0825472
0.0822713
0.082047
0.0819552
0.0821096
0.0826772
0.0837574
0.0777667
0.0788526
0.0799514
0.0809922
0.0819383
0.0827726
0.0834837
0.0840638
0.0845107
0.0848281
0.0850258
0.0851192
0.0851303
0.085089
0.0850371
0.0850341
0.0851675
0.0855656
0.0864271
0.0878856
0.0778977
0.0791709
0.080454
0.0816521
0.0827195
0.0836383
0.0844011
0.0850058
0.0854553
0.0857573
0.0859243
0.0859728
0.0859248
0.0858088
0.0856641
0.085547
0.0855414
0.0857733
0.0864493
0.0877211
0.0779239
0.0792436
0.0806028
0.0819007
0.0830795
0.0841102
0.0849772
0.0856723
0.0861947
0.0865494
0.0867466
0.0868013
0.0867332
0.0865684
0.086342
0.0861045
0.0859315
0.0859372
0.0863184
0.0872218
0.0779297
0.0792555
0.0806316
0.081962
0.0831883
0.0842786
0.0852134
0.0859809
0.0865764
0.0870013
0.0872623
0.0873709
0.0873433
0.0872017
0.0869768
0.0867129
0.0864771
0.0863719
0.0865802
0.0872334
0.0779317
0.079257
0.0806342
0.0819709
0.0832106
0.0843219
0.0852849
0.0860871
0.0867228
0.087192
0.0874995
0.0876547
0.0876718
0.08757
0.087377
0.0871331
0.0868996
0.086771
0.0869205
0.0874657
0.0779325
0.0792573
0.0806335
0.0819704
0.0832128
0.0843295
0.0853009
0.0861148
0.0867654
0.0872524
0.0875805
0.0877584
0.0877992
0.0877212
0.0875507
0.0873259
0.087106
0.0869814
0.0871208
0.0876346
0.0779325
0.0792573
0.0806335
0.0819704
0.0832128
0.0843295
0.0853009
0.0861148
0.0867654
0.0872524
0.0875805
0.0877584
0.0877992
0.0877212
0.0875507
0.0873259
0.087106
0.0869814
0.0871208
0.0876346
0.0779317
0.079257
0.0806342
0.0819709
0.0832106
0.0843219
0.0852849
0.0860871
0.0867228
0.087192
0.0874995
0.0876547
0.0876718
0.08757
0.087377
0.0871331
0.0868996
0.086771
0.0869205
0.0874657
0.0779297
0.0792555
0.0806316
0.081962
0.0831883
0.0842786
0.0852134
0.0859809
0.0865764
0.0870013
0.0872623
0.0873709
0.0873433
0.0872017
0.0869768
0.0867129
0.0864771
0.0863719
0.0865802
0.0872334
0.0779239
0.0792436
0.0806028
0.0819007
0.0830795
0.0841102
0.0849772
0.0856723
0.0861947
0.0865494
0.0867466
0.0868013
0.0867332
0.0865684
0.086342
0.0861045
0.0859314
0.0859372
0.0863184
0.0872218
0.0778977
0.0791709
0.080454
0.0816521
0.0827195
0.0836383
0.0844011
0.0850058
0.0854553
0.0857573
0.0859243
0.0859728
0.0859247
0.0858087
0.0856641
0.085547
0.0855414
0.0857733
0.0864493
0.087721
0.0777667
0.0788526
0.0799514
0.0809922
0.0819383
0.0827726
0.0834837
0.0840638
0.0845107
0.0848281
0.0850258
0.0851192
0.0851302
0.0850889
0.0850371
0.0850341
0.0851674
0.0855656
0.0864271
0.0878856
0.0772526
0.0780544
0.0790542
0.0800654
0.0809849
0.0817627
0.0823746
0.0828127
0.0830814
0.0831945
0.083172
0.083037
0.0828169
0.0825472
0.0822713
0.0820471
0.0819552
0.0821097
0.0826773
0.0837576
0.0747348
0.0761454
0.0771009
0.0776008
0.0777203
0.0775421
0.0771359
0.076559
0.0758583
0.0750723
0.0742325
0.0733675
0.0725044
0.0716678
0.0708724
0.0701575
0.0695774
0.0692088
0.0691629
0.0694971
0.0645659
0.0622793
0.0603748
0.0586521
0.0570586
0.055569
0.0541676
0.0528448
0.0515949
0.0504141
0.0492993
0.0482498
0.0472669
0.0463553
0.0455279
0.0447634
0.0440832
0.0435221
0.0431317
0.0429374
0.00610984
0.00627136
0.00643475
0.00659663
0.00675463
0.00690727
0.00705374
0.0071936
0.00732674
0.00745326
0.00757343
0.00768763
0.00779635
0.00790019
0.00799983
0.00809672
0.00819169
0.00828557
0.00837959
0.00847275
0.00611
0.00627236
0.00643784
0.00660302
0.00676533
0.00692316
0.00707549
0.00722171
0.0073615
0.00749478
0.00762164
0.00774232
0.00785721
0.00796676
0.00807156
0.00817289
0.0082714
0.00836789
0.00846338
0.00855796
0.0646278
0.0624615
0.0607381
0.0592305
0.0578585
0.0565794
0.0553684
0.054212
0.0531034
0.0520402
0.0510226
0.0500526
0.0491346
0.0482751
0.0474847
0.0467535
0.0461041
0.0455631
0.0451643
0.0449236
0.0749478
0.076685
0.0780009
0.078853
0.0792927
0.0793946
0.0792288
0.0788566
0.0783303
0.0776939
0.0769844
0.0762338
0.0754715
0.0747281
0.0740327
0.073407
0.0729012
0.072579
0.0725185
0.0727615
0.07784
0.0789805
0.0801358
0.0812362
0.0822455
0.0831464
0.083927
0.0845786
0.0850982
0.0854887
0.0857592
0.085925
0.0860076
0.0860332
0.0860367
0.0860699
0.0862038
0.0865346
0.0871844
0.0882311
0.0797689
0.0800899
0.0806195
0.0812855
0.0820312
0.0828179
0.0836157
0.0843984
0.085144
0.0858354
0.0864624
0.0870211
0.0875165
0.0879642
0.0883939
0.0888538
0.0894187
0.0901966
0.0913348
0.0929385
0.0801863
0.0807513
0.081352
0.0819826
0.0826319
0.08329
0.083946
0.084587
0.0851996
0.0857719
0.0862952
0.0867656
0.087186
0.0875685
0.0879385
0.0883403
0.0888459
0.0895642
0.0906532
0.0922381
0.0802841
0.0809913
0.0817325
0.0824825
0.0832216
0.0839369
0.0846177
0.0852529
0.0858316
0.0863445
0.086785
0.0871501
0.0874428
0.0876737
0.0878656
0.0880583
0.0883182
0.0887478
0.0895038
0.0907193
0.080303
0.081045
0.0818418
0.0826639
0.0834839
0.0842814
0.0850392
0.0857414
0.0863735
0.0869233
0.0873814
0.0877427
0.0880072
0.0881827
0.0882872
0.0883553
0.0884452
0.0886495
0.0891158
0.0899729
0.0803068
0.0810538
0.0818633
0.0827087
0.0835625
0.0844023
0.0852086
0.085963
0.086648
0.0872484
0.0877521
0.0881508
0.0884414
0.088628
0.0887246
0.0887604
0.0887869
0.0888878
0.0892014
0.0898476
0.0803079
0.0810549
0.081866
0.0827163
0.0835794
0.0844331
0.0852578
0.0860344
0.0867447
0.0873725
0.0879041
0.0883298
0.0886446
0.0888505
0.0889593
0.0889971
0.0890118
0.0890821
0.0893407
0.0899019
0.0803079
0.0810549
0.081866
0.0827163
0.0835794
0.0844331
0.0852578
0.0860344
0.0867447
0.0873725
0.0879041
0.0883298
0.0886446
0.0888505
0.0889593
0.0889971
0.0890118
0.0890821
0.0893407
0.0899019
0.0803068
0.0810538
0.0818633
0.0827087
0.0835625
0.0844023
0.0852086
0.085963
0.086648
0.0872484
0.0877521
0.0881508
0.0884414
0.088628
0.0887246
0.0887604
0.0887869
0.0888878
0.0892014
0.0898476
0.080303
0.081045
0.0818418
0.0826639
0.0834839
0.0842814
0.0850392
0.0857414
0.0863735
0.0869233
0.0873814
0.0877427
0.0880072
0.0881827
0.0882872
0.0883553
0.0884452
0.0886495
0.0891158
0.0899729
0.0802841
0.0809913
0.0817325
0.0824825
0.0832216
0.0839369
0.0846177
0.0852529
0.0858316
0.0863445
0.086785
0.0871501
0.0874428
0.0876737
0.0878655
0.0880583
0.0883182
0.0887478
0.0895037
0.0907192
0.0801863
0.0807513
0.081352
0.0819826
0.0826319
0.08329
0.083946
0.084587
0.0851995
0.0857718
0.0862951
0.0867656
0.087186
0.0875685
0.0879384
0.0883402
0.0888458
0.0895641
0.0906531
0.0922379
0.0797689
0.0800899
0.0806195
0.0812855
0.0820312
0.0828179
0.0836157
0.0843984
0.0851439
0.0858354
0.0864623
0.087021
0.0875164
0.0879642
0.0883938
0.0888538
0.0894186
0.0901965
0.0913347
0.0929384
0.07784
0.0789805
0.0801358
0.0812362
0.0822455
0.0831464
0.0839269
0.0845786
0.0850981
0.0854886
0.0857591
0.0859249
0.0860075
0.0860332
0.0860367
0.0860698
0.0862038
0.0865346
0.0871845
0.0882311
0.0749477
0.0766849
0.0780009
0.078853
0.0792927
0.0793946
0.0792288
0.0788566
0.0783303
0.0776939
0.0769843
0.0762337
0.0754714
0.074728
0.0740327
0.073407
0.0729013
0.0725791
0.0725187
0.0727617
0.0646278
0.0624615
0.0607381
0.0592305
0.0578585
0.0565794
0.0553684
0.054212
0.0531034
0.0520402
0.0510226
0.0500526
0.0491346
0.0482751
0.0474847
0.0467536
0.0461042
0.0455632
0.0451644
0.0449238
0.00611
0.00627235
0.00643784
0.00660302
0.00676533
0.00692316
0.00707549
0.00722171
0.0073615
0.00749478
0.00762164
0.00774232
0.00785721
0.00796676
0.00807156
0.00817289
0.0082714
0.00836789
0.00846338
0.00855796
0.00610996
0.00627232
0.00643818
0.00660422
0.00676798
0.00692788
0.00708293
0.00723243
0.00737597
0.00751331
0.00764441
0.00776937
0.00788841
0.00800186
0.00811016
0.00821385
0.00831368
0.0084111
0.00850694
0.00860177
0.0646374
0.0624851
0.0607979
0.0593518
0.0580608
0.0568756
0.0557659
0.0547135
0.0537078
0.0527436
0.051819
0.0509349
0.050095
0.0493054
0.0485756
0.0479179
0.0473487
0.0468636
0.0464893
0.0462405
0.0749866
0.0767987
0.0782424
0.0792625
0.0798896
0.0801818
0.0801994
0.0799979
0.079627
0.0791303
0.0785458
0.0779071
0.0772453
0.0765913
0.0759778
0.0754435
0.0750203
0.0747514
0.0746948
0.0748852
0.0779861
0.0793359
0.0807047
0.081999
0.0831748
0.0842162
0.085117
0.0858759
0.0864964
0.0869869
0.0873607
0.0876357
0.0878349
0.0879874
0.0881312
0.0883095
0.0885809
0.089024
0.0897295
0.0907595
0.0802523
0.0808653
0.0815169
0.0822047
0.0829207
0.0836579
0.0844077
0.0851592
0.0859003
0.0866207
0.0873129
0.0879744
0.0886093
0.0892307
0.0898625
0.0905456
0.0913415
0.0923371
0.0936406
0.0953343
0.0819646
0.0820509
0.0822753
0.0826017
0.0829994
0.0834483
0.0839354
0.0844504
0.0849841
0.0855281
0.0860761
0.0866252
0.0871774
0.0877421
0.0883405
0.0890098
0.08981
0.0908297
0.092186
0.0939777
0.0823143
0.0826258
0.0829453
0.0832806
0.083631
0.0839941
0.0843672
0.0847466
0.0851273
0.0855043
0.085873
0.0862311
0.0865806
0.0869301
0.0872986
0.0877208
0.0882536
0.0889834
0.0900301
0.0915033
0.082391
0.0828167
0.083251
0.0836869
0.0841166
0.0845347
0.0849377
0.0853219
0.0856828
0.0860156
0.0863159
0.0865808
0.0868111
0.0870134
0.0872035
0.0874121
0.0876908
0.0881203
0.0888172
0.0898942
0.0824053
0.0828587
0.0833368
0.0838288
0.0843211
0.0848027
0.0852653
0.0857013
0.0861032
0.0864636
0.0867755
0.087034
0.0872371
0.0873887
0.0875012
0.0876009
0.0877342
0.0879755
0.0884361
0.089227
0.0824078
0.0828656
0.083354
0.0838636
0.0843799
0.0848906
0.0853854
0.0858547
0.0862887
0.0866779
0.0870134
0.0872881
0.087498
0.0876448
0.0877385
0.0878025
0.0878801
0.0880416
0.0883945
0.0890479
0.0824078
0.0828656
0.083354
0.0838636
0.0843799
0.0848906
0.0853854
0.0858547
0.0862887
0.0866779
0.0870134
0.0872881
0.087498
0.0876448
0.0877385
0.0878025
0.0878801
0.0880415
0.0883945
0.0890479
0.0824053
0.0828587
0.0833368
0.0838288
0.0843211
0.0848027
0.0852653
0.0857013
0.0861032
0.0864636
0.0867755
0.087034
0.0872371
0.0873887
0.0875012
0.0876008
0.0877342
0.0879755
0.088436
0.0892269
0.082391
0.0828167
0.083251
0.0836869
0.0841166
0.0845347
0.0849377
0.0853219
0.0856828
0.0860156
0.0863158
0.0865808
0.0868111
0.0870133
0.0872035
0.087412
0.0876907
0.0881202
0.0888171
0.0898941
0.0823143
0.0826258
0.0829453
0.0832806
0.083631
0.0839941
0.0843672
0.0847465
0.0851273
0.0855043
0.085873
0.0862311
0.0865806
0.08693
0.0872985
0.0877207
0.0882535
0.0889832
0.0900299
0.0915031
0.0819646
0.0820509
0.0822753
0.0826017
0.0829994
0.0834483
0.0839354
0.0844504
0.084984
0.085528
0.0860761
0.0866252
0.0871773
0.087742
0.0883404
0.0890097
0.0898099
0.0908295
0.0921858
0.0939775
0.0802523
0.0808653
0.0815169
0.0822046
0.0829207
0.0836579
0.0844077
0.0851591
0.0859003
0.0866206
0.0873128
0.0879743
0.0886092
0.0892306
0.0898624
0.0905455
0.0913414
0.092337
0.0936404
0.0953341
0.0779861
0.0793359
0.0807047
0.0819989
0.0831748
0.0842162
0.085117
0.0858759
0.0864963
0.0869869
0.0873607
0.0876357
0.0878348
0.0879874
0.0881311
0.0883094
0.0885808
0.089024
0.0897295
0.0907594
0.0749866
0.0767987
0.0782424
0.0792624
0.0798895
0.0801818
0.0801994
0.0799978
0.079627
0.0791303
0.0785457
0.077907
0.0772453
0.0765913
0.0759778
0.0754434
0.0750203
0.0747514
0.0746949
0.0748853
0.0646374
0.0624851
0.0607979
0.0593518
0.0580608
0.0568756
0.0557659
0.0547135
0.0537078
0.0527436
0.051819
0.0509349
0.050095
0.0493054
0.0485756
0.0479179
0.0473487
0.0468637
0.0464894
0.0462407
0.00610996
0.00627232
0.00643817
0.00660422
0.00676798
0.00692788
0.00708293
0.00723243
0.00737596
0.00751331
0.00764441
0.00776937
0.00788841
0.00800186
0.00811017
0.00821386
0.00831368
0.0084111
0.00850695
0.00860177
0.00610993
0.00627225
0.00643815
0.0066044
0.00676854
0.00692902
0.00708485
0.00723537
0.00738014
0.00751893
0.00765166
0.00777839
0.0078993
0.00801467
0.00812486
0.00823032
0.0083316
0.00842977
0.00852592
0.00862078
0.06464
0.0624874
0.0608047
0.0593731
0.0581074
0.0569571
0.0558906
0.054888
0.0539371
0.0530309
0.0521659
0.0513418
0.0505607
0.0498277
0.0491507
0.0485411
0.0480135
0.0475733
0.0472295
0.0469958
0.0749936
0.0768149
0.0782876
0.0793621
0.0800663
0.0804523
0.0805748
0.0804846
0.0802275
0.0798437
0.0793688
0.0788349
0.0782718
0.077709
0.0771774
0.0767116
0.0763516
0.0761287
0.0760817
0.0762426
0.0780135
0.0794142
0.0808676
0.0822749
0.0835809
0.0847594
0.0857976
0.08669
0.0874384
0.0880509
0.0885411
0.0889279
0.0892353
0.0894928
0.0897372
0.0900139
0.0903763
0.0908837
0.091608
0.0926042
0.080364
0.0811386
0.0819566
0.0827968
0.0836444
0.0844914
0.0853319
0.0861595
0.0869677
0.0877516
0.0885093
0.0892427
0.0899595
0.0906751
0.0914144
0.0922149
0.093129
0.0942279
0.0955958
0.0973026
0.0823738
0.0827274
0.0830909
0.083476
0.0838852
0.0843194
0.084779
0.0852636
0.0857716
0.0863014
0.0868522
0.0874254
0.0880269
0.0886688
0.0893729
0.0901738
0.0911235
0.0922953
0.0937806
0.0956622
0.0838938
0.0838752
0.0839534
0.0841029
0.0843018
0.0845353
0.084795
0.0850756
0.0853737
0.0856872
0.0860156
0.0863609
0.0867294
0.0871332
0.0875935
0.0881444
0.0888379
0.0897482
0.0909714
0.0926013
0.0841916
0.0843739
0.084551
0.0847321
0.0849183
0.0851085
0.0853011
0.0854946
0.0856871
0.0858771
0.0860636
0.086248
0.0864349
0.0866347
0.0868667
0.0871625
0.0875716
0.0881665
0.089044
0.090304
0.0842539
0.0845307
0.0848038
0.0850696
0.0853238
0.0855627
0.0857839
0.0859855
0.0861658
0.0863231
0.0864564
0.0865663
0.0866565
0.086736
0.0868219
0.0869438
0.0871486
0.0875063
0.0881129
0.0890714
0.0842647
0.0845642
0.0848717
0.0851796
0.0854786
0.0857604
0.0860192
0.0862504
0.0864503
0.0866157
0.0867446
0.0868365
0.0868944
0.0869263
0.0869483
0.0869886
0.0870926
0.0873291
0.0877934
0.0885898
0.0842647
0.0845642
0.0848717
0.0851796
0.0854786
0.0857604
0.0860192
0.0862504
0.0864503
0.0866157
0.0867446
0.0868365
0.0868944
0.0869263
0.0869483
0.0869885
0.0870926
0.0873291
0.0877933
0.0885897
0.0842539
0.0845307
0.0848038
0.0850696
0.0853238
0.0855627
0.0857839
0.0859855
0.0861658
0.0863231
0.0864564
0.0865663
0.0866565
0.086736
0.0868219
0.0869438
0.0871486
0.0875062
0.0881128
0.0890713
0.0841916
0.0843739
0.084551
0.0847321
0.0849183
0.0851085
0.0853011
0.0854946
0.0856871
0.0858771
0.0860636
0.0862479
0.0864348
0.0866347
0.0868666
0.0871624
0.0875715
0.0881664
0.0890438
0.0903038
0.0838938
0.0838752
0.0839534
0.0841029
0.0843018
0.0845353
0.084795
0.0850756
0.0853737
0.0856872
0.0860155
0.0863609
0.0867294
0.0871331
0.0875934
0.0881443
0.0888377
0.089748
0.0909712
0.092601
0.0823738
0.0827274
0.0830909
0.083476
0.0838852
0.0843193
0.084779
0.0852635
0.0857716
0.0863014
0.0868521
0.0874254
0.0880268
0.0886687
0.0893728
0.0901736
0.0911233
0.0922951
0.0937803
0.0956618
0.080364
0.0811386
0.0819566
0.0827968
0.0836444
0.0844914
0.0853319
0.0861594
0.0869676
0.0877516
0.0885092
0.0892426
0.0899594
0.090675
0.0914142
0.0922147
0.0931288
0.0942276
0.0955955
0.0973023
0.0780135
0.0794142
0.0808676
0.0822749
0.0835808
0.0847594
0.0857975
0.08669
0.0874384
0.0880508
0.0885411
0.0889279
0.0892352
0.0894927
0.0897371
0.0900138
0.0903762
0.0908836
0.0916079
0.092604
0.0749936
0.0768149
0.0782875
0.0793621
0.0800663
0.0804523
0.0805748
0.0804846
0.0802275
0.0798437
0.0793688
0.0788349
0.0782717
0.0777089
0.0771773
0.0767115
0.0763515
0.0761287
0.0760817
0.0762426
0.06464
0.0624874
0.0608047
0.0593731
0.0581074
0.0569571
0.0558906
0.054888
0.0539371
0.0530309
0.0521659
0.0513418
0.0505607
0.0498277
0.0491507
0.0485411
0.0480135
0.0475734
0.0472296
0.046996
0.00610993
0.00627225
0.00643815
0.0066044
0.00676854
0.00692902
0.00708485
0.00723537
0.00738014
0.00751893
0.00765166
0.00777839
0.0078993
0.00801467
0.00812486
0.00823032
0.0083316
0.00842978
0.00852593
0.00862078
0.00610991
0.00627222
0.00643814
0.00660449
0.00676882
0.00692958
0.0070858
0.00723684
0.00738226
0.00752182
0.00765544
0.00778315
0.00790509
0.00802151
0.00813271
0.00823909
0.00834113
0.00843935
0.00853495
0.00862899
0.0646413
0.0624876
0.0608042
0.059375
0.058116
0.0569769
0.055926
0.0549435
0.0540171
0.0531392
0.0523062
0.0515169
0.0507728
0.0500781
0.0494392
0.048866
0.0483712
0.04797
0.0476623
0.0474549
0.0749956
0.0768159
0.0782914
0.0793783
0.0801058
0.080526
0.0806924
0.0806547
0.0804572
0.0801386
0.0797327
0.0792699
0.0787782
0.0782848
0.0778181
0.0774088
0.0770913
0.0769033
0.0768729
0.0770237
0.0780184
0.0794256
0.0808979
0.0823418
0.0837017
0.084949
0.0860675
0.0870491
0.087893
0.0886047
0.0891961
0.0896843
0.0900915
0.0904454
0.09078
0.0911363
0.0915637
0.0921198
0.0928555
0.0938246
0.0803843
0.0811975
0.0820784
0.0830025
0.0839476
0.0848995
0.0858472
0.0867816
0.0876947
0.0885814
0.0894399
0.0902728
0.0910886
0.0919026
0.0927388
0.0936322