/*--------------------------------*- C++ -*----------------------------------*\
  =========                 |
  \\      /  F ield         | OpenFOAM: The Open Source CFD Toolbox
   \\    /   O peration     | Website:  https://openfoam.org
    \\  /    A nd           | Version:  10
     \\/     M anipulation  |
\*---------------------------------------------------------------------------*/
FoamFile
{
    format      ascii;
    class       volScalarField;
    location    "300";
    object      p;
}
// * * * * * * * * * * * * * * * * * * * * * * * * * * * * * * * * * * * * * //

dimensions      [1 -1 -2 0 0 0 0];

internalField   nonuniform List<scalar> 
112000
(
197776
197040
196479
196157
195929
195699
195437
195132
194772
194342
193825
193199
192439
191507
190356
188914
187074
184663
181365
176684
196219
196101
195931
195790
195653
195485
195269
194998
194663
194253
193751
193138
192387
191464
190320
188883
187048
184638
181336
176657
196404
196350
196227
196068
195888
195680
195433
195137
194780
194351
193834
193208
192446
191512
190358
188911
187063
184639
181314
176614
196397
196264
196091
195916
195736
195535
195298
195013
194668
194249
193740
193121
192363
191433
190278
188828
186972
184534
181184
176448
196378
196241
196080
195926
195764
195574
195342
195058
194712
194289
193775
193148
192383
191443
190276
188811
186937
184472
181086
176305
196358
196220
196058
195903
195738
195543
195307
195020
194670
194245
193728
193099
192330
191384
190210
188734
186845
184359
180942
176117
196340
196203
196042
195888
195726
195534
195300
195014
194665
194240
193722
193090
192317
191365
190183
188696
186791
184284
180838
175976
196326
196190
196029
195877
195715
195523
195288
195001
194650
194223
193702
193067
192290
191332
190143
188647
186730
184207
180739
175847
196317
196181
196021
195870
195708
195516
195281
194994
194643
194215
193693
193056
192276
191315
190122
188620
186694
184160
180677
175765
196312
196176
196017
195866
195704
195512
195277
194990
194638
194209
193687
193049
192267
191305
190109
188603
186674
184134
180643
175720
196312
196176
196017
195866
195704
195512
195277
194990
194638
194209
193687
193049
192267
191305
190109
188603
186674
184134
180643
175720
196317
196181
196021
195870
195708
195516
195281
194994
194643
194215
193693
193056
192276
191315
190122
188620
186694
184160
180677
175765
196326
196190
196029
195877
195715
195523
195288
195001
194650
194223
193702
193067
192289
191332
190143
188647
186730
184207
180739
175847
196340
196203
196042
195888
195726
195534
195300
195014
194665
194240
193722
193090
192317
191365
190183
188696
186791
184284
180838
175976
196358
196220
196058
195903
195738
195543
195307
195020
194670
194245
193728
193099
192330
191384
190210
188734
186845
184359
180941
176117
196378
196241
196080
195926
195764
195574
195342
195058
194711
194289
193775
193148
192383
191442
190276
188811
186936
184472
181086
176304
196397
196264
196091
195916
195735
195535
195298
195013
194668
194249
193740
193121
192363
191432
190278
188827
186972
184534
181184
176448
196404
196350
196227
196068
195888
195680
195433
195137
194780
194351
193834
193208
192446
191512
190357
188910
187063
184638
181314
176613
196219
196101
195931
195790
195653
195485
195269
194998
194663
194252
193751
193137
192387
191464
190319
188883
187047
184638
181335
176657
197776
197040
196479
196157
195929
195699
195437
195132
194772
194342
193825
193199
192439
191507
190356
188914
187074
184663
181364
176683
196256
196138
195968
195827
195692
195526
195313
195046
194717
194315
193824
193226
192495
191600
190495
189118
187381
185153
182234
178406
194860
195130
195331
195402
195381
195287
195125
194896
194595
194214
193738
193151
192429
191539
190437
189060
187320
185083
182147
178316
195034
195360
195590
195648
195591
195462
195271
195018
194696
194297
193806
193205
192470
191568
190453
189062
187306
185049
182086
178235
194996
195277
195462
195504
195449
195327
195147
194905
194593
194201
193717
193121
192388
191486
190368
188972
187205
184931
181941
178061
194966
195256
195451
195506
195464
195351
195175
194933
194620
194225
193736
193133
192393
191481
190352
188941
187155
184856
181832
177913
194941
195234
195430
195483
195438
195323
195144
194899
194583
194186
193694
193088
192343
191425
190288
188865
187062
184741
181686
177729
194921
195216
195414
195469
195426
195311
195133
194890
194574
194177
193683
193074
192325
191401
190255
188820
187002
184660
181576
177584
194906
195202
195402
195459
195415
195300
195122
194877
194560
194160
193664
193052
192298
191369
190216
188772
186941
184582
181477
177457
194896
195192
195394
195452
195408
195293
195114
194869
194552
194151
193654
193040
192284
191351
190193
188743
186904
184534
181413
177374
194891
195188
195390
195448
195405
195290
195111
194865
194547
194146
193648
193033
192275
191340
190180
188726
186883
184507
181379
177329
194891
195188
195390
195448
195405
195290
195111
194865
194547
194146
193648
193033
192275
191340
190180
188726
186883
184507
181379
177329
194896
195192
195394
195452
195408
195293
195114
194869
194552
194151
193654
193040
192284
191351
190193
188742
186903
184534
181413
177374
194906
195202
195402
195459
195415
195300
195122
194877
194560
194160
193664
193052
192298
191369
190216
188772
186941
184582
181477
177457
194921
195216
195414
195469
195426
195311
195133
194890
194574
194177
193683
193074
192325
191401
190255
188820
187002
184660
181576
177584
194941
195234
195430
195483
195438
195323
195144
194899
194583
194186
193694
193088
192343
191425
190288
188865
187062
184741
181686
177728
194966
195256
195450
195506
195464
195351
195175
194933
194620
194225
193736
193133
192393
191481
190352
188941
187155
184856
181832
177913
194996
195277
195462
195504
195449
195327
195147
194905
194593
194201
193717
193121
192388
191486
190368
188972
187204
184931
181941
178060
195034
195360
195590
195648
195591
195462
195271
195018
194696
194297
193806
193205
192470
191567
190452
189062
187305
185049
182085
178234
194860
195130
195331
195402
195381
195287
195125
194896
194595
194214
193738
193151
192429
191539
190437
189060
187320
185083
182147
178316
196256
196138
195968
195827
195692
195526
195313
195046
194717
194315
193824
193225
192495
191599
190494
189118
187381
185153
182233
178406
196509
196454
196332
196177
196003
195806
195573
195294
194962
194564
194087
193512
192819
191977
190950
189689
188127
186177
183722
180667
195106
195432
195663
195723
195672
195550
195370
195131
194827
194451
193989
193426
192740
191903
190878
189614
188046
186085
183610
180542
195821
195890
196008
196004
195893
195719
195497
195227
194898
194502
194023
193445
192745
191895
190855
189576
187990
186005
183499
180404
195742
195793
195860
195844
195742
195581
195372
195112
194793
194403
193930
193356
192657
191805
190762
189475
187876
185872
183337
180213
195671
195778
195864
195855
195761
195604
195395
195133
194809
194414
193934
193352
192645
191783
190726
189424
187805
185776
183209
180049
195633
195759
195852
195837
195736
195575
195364
195099
194772
194375
193892
193306
192593
191724
190658
189343
187708
185656
183059
179864
195607
195740
195839
195825
195724
195563
195352
195087
194761
194362
193876
193286
192568
191692
190617
189290
187638
185566
182941
179713
195589
195724
195828
195816
195714
195552
195340
195074
194746
194345
193856
193263
192541
191659
190576
189239
187575
185486
182838
179585
195577
195714
195820
195810
195707
195545
195332
195066
194737
194334
193845
193249
192524
191638
190551
189207
187534
185433
182771
179500
195571
195709
195816
195806
195704
195541
195328
195061
194732
194329
193838
193242
192515
191627
190537
189190
187512
185406
182735
179455
195571
195709
195816
195806
195704
195541
195328
195061
194732
194329
193838
193242
192515
191627
190537
189190
187512
185406
182735
179455
195577
195714
195820
195810
195707
195545
195332
195066
194737
194334
193845
193249
192524
191638
190551
189207
187534
185433
182771
179499
195589
195724
195828
195816
195714
195552
195340
195074
194746
194345
193856
193263
192540
191658
190576
189239
187575
185485
182838
179585
195607
195740
195839
195825
195724
195563
195352
195087
194761
194362
193876
193286
192568
191692
190617
189290
187638
185566
182940
179713
195633
195759
195852
195837
195736
195575
195364
195099
194772
194375
193892
193305
192593
191724
190658
189343
187707
185656
183059
179863
195671
195778
195864
195855
195761
195604
195395
195133
194809
194414
193934
193352
192645
191782
190726
189424
187805
185776
183209
180048
195742
195793
195860
195844
195742
195581
195372
195112
194793
194403
193930
193356
192657
191805
190761
189474
187875
185871
183337
180212
195821
195890
196008
196004
195893
195718
195497
195227
194898
194501
194023
193445
192745
191894
190855
189576
187990
186005
183498
180404
195106
195432
195663
195723
195672
195550
195370
195131
194827
194451
193989
193426
192740
191903
190878
189614
188046
186084
183609
180541
196509
196454
196332
196177
196003
195806
195572
195294
194962
194564
194087
193512
192819
191977
190950
189689
188127
186176
183721
180666
196597
196465
196297
196132
195968
195790
195584
195340
195046
194693
194267
193754
193135
192387
191481
190380
189041
187409
185425
183054
195166
195449
195639
195691
195652
195552
195400
195194
194929
194596
194185
193682
193070
192326
191421
190320
188976
187335
185334
182950
195847
195899
195970
195961
195870
195722
195531
195294
195003
194650
194221
193703
193077
192319
191400
190282
188920
187255
185225
182812
196158
195965
195890
195839
195747
195608
195425
195197
194914
194567
194143
193627
193001
192240
191315
190188
188811
187127
185068
182624
196044
195934
195879
195837
195757
195625
195445
195214
194927
194574
194142
193618
192983
192211
191273
190130
188733
187025
184934
182455
195968
195920
195881
195830
195739
195602
195418
195184
194893
194537
194102
193573
192932
192153
191205
190049
188636
186905
184787
182276
195930
195902
195875
195822
195727
195589
195404
195170
194879
194521
194083
193550
192903
192116
191159
189990
188561
186810
184665
182125
195906
195885
195866
195815
195718
195578
195392
195157
194863
194503
194062
193525
192873
192081
191115
189937
188495
186727
184561
181997
195891
195873
195859
195810
195713
195570
195384
195148
194854
194492
194049
193510
192855
192058
191088
189902
188451
186672
184491
181911
195884
195867
195855
195808
195710
195567
195380
195143
194848
194486
194042
193502
192845
192046
191073
189884
188428
186643
184455
181866
195884
195867
195855
195808
195710
195567
195380
195143
194848
194486
194042
193502
192845
192046
191073
189884
188428
186643
184455
181866
195891
195873
195859
195810
195713
195570
195384
195148
194854
194492
194049
193510
192855
192058
191088
189902
188451
186672
184491
181911
195906
195885
195866
195815
195718
195578
195392
195157
194863
194503
194062
193525
192873
192081
191115
189937
188494
186727
184561
181997
195930
195902
195875
195822
195727
195589
195404
195170
194879
194521
194083
193550
192903
192116
191159
189990
188561
186809
184664
182124
195968
195920
195881
195830
195739
195602
195418
195184
194893
194537
194102
193573
192932
192153
191205
190049
188636
186905
184786
182275
196044
195934
195879
195837
195757
195625
195445
195214
194927
194573
194142
193618
192982
192211
191273
190130
188733
187024
184934
182455
196158
195965
195890
195839
195747
195608
195425
195197
194914
194567
194143
193627
193000
192240
191315
190188
188811
187126
185068
182623
195847
195899
195970
195961
195870
195722
195531
195294
195003
194650
194221
193703
193077
192319
191400
190282
188919
187255
185225
182812
195166
195449
195639
195691
195652
195552
195400
195194
194929
194596
194185
193682
193070
192326
191421
190319
188975
187334
185334
182949
196597
196465
196297
196132
195968
195790
195584
195340
195046
194692
194267
193754
193135
192387
191481
190380
189041
187409
185425
183053
196699
196565
196412
196277
196143
195993
195813
195597
195335
195021
194644
194192
193650
193002
192225
191296
190186
188866
187309
185510
195257
195550
195755
195830
195816
195742
195617
195439
195207
194914
194553
194113
193580
192937
192164
191235
190123
188797
187228
185416
195902
196011
196106
196113
196042
195916
195748
195537
195278
194963
194584
194128
193581
192925
192139
191196
190067
188721
187127
185287
196175
196067
196015
195982
195915
195801
195643
195441
195190
194882
194507
194053
193507
192849
192057
191106
189965
188600
186981
185112
196368
196162
196054
196005
195939
195826
195666
195459
195202
194887
194505
194043
193487
192818
192014
191048
189888
188501
186852
184950
196254
196132
196043
195987
195914
195799
195637
195427
195168
194850
194464
193998
193437
192761
191947
190969
189793
188386
186712
184780
196182
196116
196049
195988
195908
195789
195625
195415
195153
194832
194443
193972
193405
192721
191898
190907
189716
188290
186592
184634
196146
196099
196046
195985
195900
195777
195612
195400
195136
194813
194421
193946
193373
192684
191853
190852
189649
188207
186489
184510
196127
196086
196041
195982
195895
195770
195603
195390
195126
194801
194407
193929
193354
192659
191823
190815
189603
188150
186419
184425
196117
196079
196037
195981
195893
195766
195599
195385
195120
194795
194399
193921
193343
192646
191807
190796
189579
188121
186383
184381
196117
196079
196037
195981
195893
195766
195599
195385
195120
194795
194399
193921
193343
192646
191807
190796
189579
188121
186383
184381
196126
196086
196040
195982
195895
195770
195603
195390
195126
194801
194407
193929
193353
192659
191823
190815
189603
188150
186419
184425
196146
196099
196046
195985
195900
195777
195612
195400
195136
194813
194421
193946
193373
192683
191852
190852
189649
188207
186489
184510
196182
196116
196049
195988
195908
195788
195625
195415
195153
194832
194443
193972
193405
192721
191898
190907
189716
188290
186592
184634
196254
196132
196043
195987
195914
195799
195637
195427
195168
194850
194464
193998
193437
192761
191947
190969
189793
188386
186712
184780
196368
196162
196054
196005
195939
195826
195666
195459
195202
194887
194505
194043
193487
192818
192014
191048
189888
188500
186852
184950
196175
196067
196015
195982
195915
195801
195643
195441
195190
194882
194507
194053
193507
192849
192057
191106
189965
188600
186981
185112
195902
196011
196106
196113
196042
195916
195748
195537
195277
194963
194584
194128
193581
192925
192139
191196
190067
188721
187126
185287
195257
195550
195755
195830
195816
195742
195617
195439
195207
194914
194553
194113
193580
192937
192164
191235
190123
188796
187228
185416
196699
196565
196412
196277
196143
195993
195813
195597
195335
195021
194644
194191
193650
193001
192225
191295
190186
188866
187309
185510
196819
196686
196538
196411
196290
196155
195997
195810
195587
195321
195004
194627
194179
193647
193017
192272
191398
190379
189208
187895
195373
195671
195884
195967
195965
195909
195806
195659
195466
195222
194922
194557
194118
193592
192965
192221
191344
190321
189141
187816
196008
196138
196245
196257
196195
196086
195942
195762
195542
195277
194959
194579
194126
193587
192948
192191
191299
190258
189056
187705
196249
196201
196173
196141
196079
195980
195846
195675
195464
195205
194892
194515
194063
193522
192878
192114
191212
190155
188932
187553
196408
196287
196203
196157
196100
196006
195871
195696
195479
195215
194894
194509
194048
193498
192843
192065
191146
190069
188820
187411
196554
196363
196235
196161
196089
195987
195847
195669
195449
195181
194858
194469
194003
193447
192783
191995
191062
189967
188696
187261
196448
196333
196229
196153
196077
195973
195833
195654
195433
195163
194837
194443
193972
193408
192736
191936
190990
189878
188586
187128
196382
196318
196236
196158
196073
195964
195821
195641
195417
195144
194814
194417
193941
193371
192691
191882
190925
189799
188490
187013
196353
196305
196236
196158
196069
195957
195812
195630
195406
195131
194799
194400
193920
193346
192661
191845
190880
189744
188423
186933
196340
196298
196234
196158
196067
195953
195808
195625
195400
195125
194791
194390
193909
193333
192645
191826
190856
189715
188387
186891
196340
196298
196234
196158
196067
195953
195808
195625
195400
195125
194791
194390
193909
193333
192645
191826
190856
189715
188387
186891
196353
196305
196236
196158
196069
195957
195812
195630
195406
195131
194799
194400
193920
193346
192661
191845
190880
189744
188423
186933
196382
196318
196236
196158
196073
195964
195821
195641
195417
195144
194814
194417
193941
193371
192691
191882
190925
189799
188490
187013
196448
196333
196229
196153
196077
195973
195833
195654
195433
195163
194837
194443
193972
193408
192736
191936
190990
189878
188586
187127
196554
196363
196235
196161
196089
195987
195847
195668
195448
195181
194858
194469
194003
193447
192783
191995
191062
189967
188696
187260
196408
196287
196203
196157
196100
196006
195871
195696
195479
195215
194894
194509
194048
193498
192843
192065
191146
190069
188820
187411
196249
196201
196173
196141
196079
195980
195846
195675
195464
195205
194892
194515
194062
193522
192878
192114
191212
190155
188932
187553
196008
196138
196245
196257
196195
196086
195942
195762
195542
195277
194959
194579
194126
193587
192947
192190
191299
190258
189056
187704
195373
195671
195884
195967
195965
195909
195806
195659
195466
195222
194922
194557
194118
193592
192965
192221
191344
190320
189141
187815
196819
196686
196538
196411
196289
196155
195997
195810
195587
195321
195004
194627
194179
193647
193016
192272
191397
190378
189208
187894
196957
196827
196687
196574
196471
196360
196233
196084
195906
195695
195445
195148
194798
194385
193902
193339
192688
191945
191112
190205
195509
195812
196033
196130
196146
196113
196041
195932
195784
195595
195361
195077
194736
194330
193851
193289
192637
191891
191053
190136
196140
196280
196400
196424
196378
196293
196178
196035
195861
195650
195399
195100
194746
194328
193837
193263
192599
191837
190980
190040
196372
196347
196337
196315
196266
196189
196085
195952
195785
195582
195336
195040
194688
194269
193775
193196
192523
191749
190875
189912
196503
196438
196382
196344
196297
196222
196116
195978
195806
195597
195343
195040
194679
194252
193748
193157
192470
191679
190783
189793
196619
196506
196407
196343
196284
196203
196094
195953
195779
195567
195312
195006
194641
194208
193698
193098
192399
191594
190679
189667
196742
196570
196438
196354
196282
196196
196084
195942
195766
195552
195293
194983
194614
194175
193657
193048
192338
191518
190586
189555
196647
196542
196434
196350
196273
196184
196071
195927
195749
195533
195271
194958
194584
194140
193616
192999
192279
191448
190502
189456
196592
196531
196443
196357
196273
196179
196063
195918
195739
195520
195257
194941
194564
194116
193587
192965
192238
191398
190443
189385
196571
196525
196445
196358
196271
196175
196058
195913
195733
195513
195249
194931
194553
194103
193571
192946
192216
191371
190411
189347
196571
196525
196445
196358
196271
196175
196058
195913
195733
195513
195249
194931
194553
194103
193571
192946
192215
191371
190410
189347
196592
196531
196443
196357
196273
196179
196063
195918
195739
195520
195257
194941
194564
194116
193587
192965
192238
191398
190442
189385
196647
196542
196434
196350
196273
196184
196071
195927
195749
195533
195271
194958
194584
194140
193616
192999
192279
191448
190502
189455
196742
196570
196438
196354
196282
196196
196084
195942
195766
195551
195293
194983
194614
194175
193657
193048
192337
191518
190586
189554
196619
196506
196406
196343
196284
196203
196094
195953
195779
195567
195312
195005
194641
194208
193698
193098
192399
191593
190679
189667
196503
196438
196382
196344
196297
196222
196116
195978
195806
195597
195343
195040
194679
194252
193748
193157
192470
191678
190782
189793
196372
196347
196337
196315
196266
196189
196085
195951
195785
195582
195336
195040
194687
194269
193775
193196
192523
191749
190874
189911
196140
196280
196400
196424
196378
196293
196178
196035
195861
195650
195399
195100
194746
194328
193837
193263
192598
191837
190980
190040
195509
195812
196033
196129
196146
196113
196041
195932
195784
195595
195361
195077
194736
194330
193850
193289
192637
191891
191052
190135
196957
196827
196687
196574
196471
196360
196233
196084
195906
195695
195445
195148
194798
194385
193902
193338
192687
191944
191112
190205
197111
196984
196852
196752
196668
196581
196484
196372
196240
196085
195903
195689
195439
195148
194811
194424
193985
193495
192961
192399
195661
195968
196199
196309
196344
196335
196293
196221
196119
195987
195822
195621
195380
195096
194764
194379
193941
193448
192910
192339
196292
196436
196568
196607
196578
196516
196431
196326
196198
196045
195862
195647
195394
195099
194756
194360
193910
193404
192850
192260
196521
196505
196509
196502
196469
196415
196341
196246
196127
195981
195804
195593
195342
195047
194703
194304
193847
193332
192764
192155
196643
196599
196564
196538
196504
196451
196375
196276
196152
196000
195817
195599
195342
195039
194685
194276
193807
193278
192693
192063
196734
196672
196601
196548
196499
196439
196359
196257
196130
195977
195792
195572
195312
195005
194647
194231
193753
193213
192613
191965
196832
196728
196626
196554
196496
196432
196351
196248
196121
195965
195779
195556
195291
194980
194616
194193
193707
193155
192542
191878
196944
196786
196655
196566
196497
196426
196342
196237
196107
195949
195760
195534
195267
194952
194583
194154
193661
193101
192477
191801
196863
196765
196654
196564
196491
196419
196333
196227
196097
195938
195747
195519
195249
194931
194559
194126
193627
193061
192429
191744
196823
196760
196663
196571
196493
196417
196330
196223
196092
195932
195740
195511
195240
194920
194545
194110
193608
193039
192404
191714
196823
196760
196663
196571
196493
196417
196330
196223
196092
195932
195740
195511
195240
194920
194545
194110
193608
193039
192403
191714
196863
196765
196654
196564
196491
196419
196333
196227
196097
195938
195747
195519
195249
194931
194559
194125
193627
193061
192429
191744
196944
196786
196655
196566
196497
196426
196342
196237
196107
195949
195760
195534
195267
194952
194583
194154
193660
193100
192477
191800
196831
196728
196626
196554
196496
196432
196351
196248
196121
195965
195779
195556
195291
194980
194616
194193
193707
193155
192542
191878
196734
196672
196601
196548
196499
196439
196359
196257
196130
195976
195792
195572
195311
195005
194646
194231
193753
193213
192613
191965
196643
196599
196564
196538
196504
196451
196375
196276
196151
196000
195817
195599
195341
195039
194685
194276
193807
193278
192693
192062
196520
196505
196509
196502
196469
196415
196341
196246
196127
195981
195804
195593
195342
195047
194703
194303
193846
193331
192763
192155
196292
196436
196568
196607
196578
196516
196431
196326
196198
196045
195862
195647
195394
195099
194755
194360
193910
193404
192850
192260
195661
195968
196199
196309
196344
196335
196293
196221
196119
195987
195822
195621
195380
195096
194764
194379
193940
193448
192909
192338
197111
196984
196852
196752
196668
196581
196484
196372
196240
196085
195903
195689
195439
195148
194811
194424
193985
193495
192961
192398
197278
197154
197030
196943
196878
196816
196751
196678
196594
196498
196386
196257
196108
195936
195742
195523
195280
195019
194746
194476
195827
196137
196376
196500
196554
196570
196560
196527
196474
196400
196306
196189
196050
195886
195696
195480
195239
194976
194700
194424
196458
196606
196747
196800
196791
196752
196699
196634
196554
196459
196348
196217
196066
195892
195692
195466
195215
194941
194652
194361
196685
196675
196691
196698
196684
196654
196611
196556
196485
196398
196293
196168
196019
195846
195646
195418
195163
194882
194583
194277
196805
196770
196749
196739
196722
196693
196648
196589
196514
196422
196311
196179
196025
195845
195638
195402
195137
194845
194533
194211
196889
196846
196795
196755
196721
196684
196635
196574
196497
196404
196292
196159
196003
195821
195611
195371
195100
194800
194477
194142
196965
196907
196832
196771
196726
196683
196634
196571
196493
196399
196285
196151
195992
195807
195593
195347
195070
194763
194431
194083
197057
196959
196854
196778
196724
196678
196626
196563
196484
196388
196273
196136
195975
195788
195570
195321
195040
194727
194388
194031
197169
197017
196882
196789
196727
196676
196622
196556
196476
196379
196263
196125
195963
195774
195554
195303
195018
194701
194357
193994
197112
197002
196878
196786
196723
196672
196618
196552
196472
196374
196258
196119
195956
195766
195545
195292
195005
194686
194340
193974
197112
197002
196878
196786
196723
196672
196618
196552
196472
196374
196258
196119
195956
195766
195545
195292
195005
194686
194340
193974
197169
197017
196882
196789
196727
196676
196622
196556
196476
196379
196263
196125
195963
195774
195554
195303
195018
194701
194357
193994
197057
196959
196854
196778
196724
196678
196626
196563
196484
196388
196273
196136
195975
195788
195570
195321
195040
194727
194388
194031
196965
196907
196831
196771
196726
196683
196634
196571
196493
196399
196285
196151
195992
195807
195592
195347
195070
194762
194431
194083
196889
196846
196795
196755
196721
196684
196635
196574
196497
196404
196292
196159
196003
195821
195611
195371
195099
194800
194477
194142
196805
196770
196749
196739
196722
196693
196648
196589
196514
196422
196311
196179
196025
195845
195638
195402
195137
194845
194533
194211
196685
196675
196691
196698
196684
196654
196611
196555
196485
196398
196293
196167
196019
195846
195646
195418
195162
194882
194583
194277
196457
196606
196747
196800
196791
196752
196699
196634
196554
196459
196348
196217
196066
195891
195692
195466
195214
194941
194652
194360
195827
196137
196376
196500
196554
196570
196560
196527
196474
196400
196305
196189
196050
195886
195696
195480
195238
194975
194699
194423
197277
197154
197030
196943
196878
196816
196751
196678
196594
196498
196386
196257
196107
195936
195741
195522
195280
195018
194745
194475
197452
197332
197215
197142
197096
197059
197026
196992
196957
196919
196877
196831
196780
196725
196666
196605
196544
196488
196445
196428
196000
196314
196562
196699
196772
196813
196835
196842
196837
196822
196797
196765
196724
196676
196623
196565
196506
196450
196405
196383
196632
196784
196934
197000
197010
196997
196976
196950
196919
196883
196841
196795
196743
196685
196623
196557
196489
196424
196369
196335
196860
196853
196879
196901
196905
196900
196889
196873
196852
196825
196790
196749
196701
196646
196585
196518
196448
196379
196318
196273
196980
196950
196940
196944
196946
196941
196929
196910
196884
196851
196812
196766
196713
196653
196586
196513
196436
196359
196289
196233
197063
197028
196989
196964
196948
196935
196919
196898
196871
196838
196799
196753
196699
196638
196570
196495
196415
196334
196257
196192
197135
197093
197033
196984
196956
196938
196921
196900
196873
196839
196799
196752
196697
196634
196564
196486
196403
196317
196234
196162
197210
197150
197066
197000
196961
196939
196919
196897
196869
196835
196794
196746
196690
196626
196554
196475
196390
196301
196215
196136
197310
197201
197083
197004
196962
196937
196917
196894
196866
196831
196790
196742
196685
196621
196549
196468
196382
196291
196202
196119
197449
197257
197099
197008
196962
196936
196915
196892
196864
196829
196787
196739
196682
196618
196545
196464
196377
196285
196195
196111
197449
197257
197099
197008
196962
196936
196915
196892
196863
196829
196787
196739
196682
196618
196545
196464
196377
196285
196195
196110
197310
197201
197083
197004
196962
196937
196917
196894
196866
196831
196790
196742
196685
196621
196549
196468
196381
196291
196202
196119
197210
197150
197066
197000
196961
196938
196919
196897
196869
196835
196794
196746
196690
196626
196554
196475
196390
196301
196214
196136
197135
197093
197033
196984
196956
196938
196921
196900
196873
196839
196799
196752
196697
196634
196564
196486
196403
196317
196234
196162
197063
197027
196989
196964
196948
196935
196919
196898
196871
196838
196799
196753
196699
196638
196570
196495
196415
196333
196256
196192
196980
196950
196940
196944
196946
196941
196929
196910
196884
196851
196812
196766
196713
196653
196586
196513
196436
196359
196288
196232
196860
196853
196879
196900
196905
196900
196889
196873
196852
196824
196790
196749
196701
196646
196585
196518
196448
196379
196317
196273
196632
196783
196933
197000
197010
196997
196976
196950
196919
196883
196841
196795
196743
196685
196623
196557
196489
196424
196369
196334
196000
196314
196562
196699
196772
196813
196835
196842
196837
196822
196797
196764
196724
196676
196623
196565
196506
196450
196405
196383
197452
197331
197215
197142
197096
197059
197026
196992
196957
196919
196877
196831
196780
196725
196666
196604
196544
196488
196445
196427
197631
197513
197404
197344
197316
197305
197303
197309
197321
197340
197367
197401
197446
197501
197571
197657
197763
197893
198054
198255
196178
196495
196750
196901
196993
197059
197112
197159
197202
197244
197288
197336
197391
197455
197530
197620
197728
197860
198020
198217
196812
196966
197123
197203
197231
197243
197254
197267
197284
197306
197334
197368
197412
197467
197534
197617
197718
197843
197995
198184
197041
197037
197069
197104
197128
197148
197169
197193
197220
197251
197286
197327
197375
197433
197503
197587
197688
197811
197960
198144
197163
197135
197132
197149
197170
197191
197211
197232
197255
197281
197312
197349
197393
197447
197513
197593
197690
197808
197951
198128
197248
197215
197184
197171
197175
197187
197204
197224
197246
197273
197304
197342
197387
197442
197508
197588
197685
197801
197942
198114
197323
197283
197230
197194
197185
197193
197209
197229
197252
197279
197310
197348
197394
197448
197514
197594
197689
197804
197943
198111
197401
197343
197265
197212
197194
197197
197212
197231
197254
197280
197312
197350
197395
197450
197517
197596
197692
197807
197944
198109
197504
197398
197286
197221
197198
197200
197214
197233
197256
197282
197314
197353
197399
197454
197521
197601
197697
197811
197948
198111
197647
197457
197305
197228
197201
197202
197215
197234
197257
197284