/*--------------------------------*- C++ -*----------------------------------*\
  =========                 |
  \\      /  F ield         | OpenFOAM: The Open Source CFD Toolbox
   \\    /   O peration     | Website:  https://openfoam.org
    \\  /    A nd           | Version:  10
     \\/     M anipulation  |
\*---------------------------------------------------------------------------*/
FoamFile
{
    format      ascii;
    class       surfaceScalarField;
    location    "300";
    object      phi;
}
// * * * * * * * * * * * * * * * * * * * * * * * * * * * * * * * * * * * * * //

dimensions      [1 0 -1 0 0 0 0];

internalField   nonuniform List<scalar> 
324400
(
0.0010025
-3.57186e-06
-4.16178e-06
0.00100302
3.41934e-07
-8.61695e-07
0.00100312
8.51664e-07
-9.53683e-07
0.00100312
1.21319e-06
-1.21018e-06
0.00100314
1.52953e-06
-1.54738e-06
0.00100347
1.73096e-06
-2.05889e-06
0.0010044
1.82915e-06
-2.75852e-06
0.00100617
1.86484e-06
-3.63372e-06
0.00100899
1.86667e-06
-4.68881e-06
0.00101309
1.84908e-06
-5.95306e-06
0.00101875
1.8197e-06
-7.47522e-06
0.00102629
1.78393e-06
-9.32353e-06
0.00103614
1.74695e-06
-1.15934e-05
0.00104884
1.71463e-06
-1.4423e-05
0.00106517
1.69463e-06
-1.80239e-05
0.00108622
1.69802e-06
-2.27413e-05
0.00111366
1.7424e-06
-2.91851e-05
0.00115034
1.85781e-06
-3.85343e-05
0.00120155
2.12523e-06
-5.33357e-05
2.37974e-06
-7.90938e-05
0.00127827
0.000996198
-2.12198e-06
-1.07097e-05
0.00100166
6.27428e-07
-5.75159e-06
0.00100567
1.63395e-06
-4.78623e-06
0.00100955
1.93893e-06
-4.61017e-06
0.0010136
2.16401e-06
-4.6816e-06
0.00101797
2.34451e-06
-4.98016e-06
0.00102284
2.46596e-06
-5.50425e-06
0.00102839
2.54731e-06
-6.23762e-06
0.00103483
2.61151e-06
-7.17942e-06
0.00104236
2.67224e-06
-8.35015e-06
0.00105123
2.73746e-06
-9.79034e-06
0.00106176
2.81443e-06
-1.15617e-05
0.00107435
2.91197e-06
-1.37529e-05
0.00108952
3.04157e-06
-1.64941e-05
0.00110798
3.21891e-06
-1.99854e-05
0.00113077
3.46608e-06
-2.45539e-05
0.00115948
3.81509e-06
-3.07782e-05
0.0011968
4.3141e-06
-3.97773e-05
0.0012479
5.049e-06
-5.40265e-05
6.01628e-06
-7.87345e-05
0.001323
0.000996501
2.13348e-08
-1.07748e-05
0.00100331
7.09014e-07
-6.88647e-06
0.00100958
1.29712e-06
-5.94016e-06
0.00101561
1.55145e-06
-5.64302e-06
0.00102167
1.6995e-06
-5.59371e-06
0.00102793
1.83943e-06
-5.7503e-06
0.00103454
1.97455e-06
-6.1198e-06
0.00104169
2.10486e-06
-6.70272e-06
0.00104957
2.24009e-06
-7.50564e-06
0.0010584
2.39105e-06
-8.55054e-06
0.00106845
2.56711e-06
-9.87659e-06
0.00108003
2.77825e-06
-1.15424e-05
0.00109353
3.03718e-06
-1.36333e-05
0.00110949
3.36098e-06
-1.62756e-05
0.0011286
3.77282e-06
-1.96638e-05
0.00115188
4.30438e-06
-2.41169e-05
0.0011809
4.99979e-06
-3.02011e-05
0.00121831
5.92198e-06
-3.90153e-05
0.0012692
7.17037e-06
-5.30164e-05
8.79841e-06
-7.73577e-05
0.00134378
0.000998239
2.84326e-07
-1.06721e-05
0.00100549
6.88141e-07
-7.22509e-06
0.0010122
1.17505e-06
-6.5903e-06
0.00101868
1.57456e-06
-6.50582e-06
0.00102516
1.88836e-06
-6.66449e-06
0.00103184
2.1646e-06
-7.01083e-06
0.00103893
2.4214e-06
-7.53002e-06
0.00104659
2.66468e-06
-8.21866e-06
0.00105501
2.90408e-06
-9.08674e-06
0.00106441
3.15262e-06
-1.01602e-05
0.00107504
3.42419e-06
-1.14818e-05
0.00108719
3.73387e-06
-1.31133e-05
0.00110128
4.09949e-06
-1.51424e-05
0.00111779
4.54349e-06
-1.76961e-05
0.00113744
5.0947e-06
-2.09686e-05
0.00116123
5.79081e-06
-2.52764e-05
0.00119073
6.68166e-06
-3.11813e-05
0.00122859
7.83306e-06
-3.97737e-05
0.00127994
9.33265e-06
-5.35019e-05
1.12253e-05
-7.75115e-05
0.00135502
0.000998178
3.28498e-07
-1.04833e-05
0.0010052
6.9018e-07
-7.02436e-06
0.00101172
1.05996e-06
-6.40089e-06
0.00101816
1.38391e-06
-6.24662e-06
0.0010247
1.64842e-06
-6.3055e-06
0.00103154
1.8773e-06
-6.55455e-06
0.00103886
2.09185e-06
-6.98169e-06
0.0010468
2.30437e-06
-7.58296e-06
0.00105555
2.52555e-06
-8.36977e-06
0.0010653
2.76752e-06
-9.36902e-06
0.00107631
3.04379e-06
-1.06228e-05
0.00108886
3.36945e-06
-1.21913e-05
0.00110336
3.76242e-06
-1.41596e-05
0.00112031
4.2451e-06
-1.66519e-05
0.00114042
4.84608e-06
-1.9859e-05
0.00116471
5.60221e-06
-2.40937e-05
0.00119474
6.56099e-06
-2.99137e-05
0.0012332
7.78299e-06
-3.84043e-05
0.0012852
9.34429e-06
-5.20084e-05
1.13006e-05
-7.5869e-05
0.00136099
0.000998073
2.87401e-07
-1.03947e-05
0.0010051
5.91654e-07
-6.92468e-06
0.00101163
8.74727e-07
-6.35292e-06
0.00101813
1.13002e-06
-6.24377e-06
0.00102476
1.35969e-06
-6.33962e-06
0.0010317
1.57558e-06
-6.63171e-06
0.00103911
1.78915e-06
-7.10794e-06
0.00104716
2.00827e-06
-7.75792e-06
0.00105604
2.24015e-06
-8.58811e-06
0.00106593
2.49361e-06
-9.62222e-06
0.0010771
2.77946e-06
-1.09001e-05
0.00108984
3.1108e-06
-1.24798e-05
0.00110454
3.50367e-06
-1.44448e-05
0.00112173
3.97829e-06
-1.69177e-05
0.0011421
4.56027e-06
-2.00877e-05
0.00116669
5.28207e-06
-2.42657e-05
0.00119707
6.18431e-06
-3.00068e-05
0.00123594
7.31641e-06
-3.83926e-05
0.00128841
8.73355e-06
-5.18612e-05
1.04795e-05
-7.55641e-05
0.00136479
0.000997962
2.22755e-07
-1.03508e-05
0.00100496
4.58559e-07
-6.86222e-06
0.00101146
6.72405e-07
-6.30289e-06
0.00101793
8.64821e-07
-6.20199e-06
0.00102454
1.04247e-06
-6.28766e-06
0.00103146
1.21329e-06
-6.55726e-06
0.00103887
1.38376e-06
-7.00484e-06
0.00104694
1.55925e-06
-7.62199e-06
0.00105585
1.74576e-06
-8.41592e-06
0.00106581
1.95083e-06
-9.41138e-06
0.00107705
2.18372e-06
-1.06491e-05
0.0010899
2.45554e-06
-1.21876e-05
0.00110473
2.77974e-06
-1.41104e-05
0.00112208
3.1729e-06
-1.65396e-05
0.00114265
3.65572e-06
-1.96634e-05
0.00116747
4.25381e-06
-2.37914e-05
0.00119813
4.9985e-06
-2.94769e-05
0.00123732
5.92678e-06
-3.77989e-05
0.00129017
7.07775e-06
-5.11915e-05
8.49401e-06
-7.48131e-05
0.00136697
0.000997877
1.50441e-07
-1.03275e-05
0.00100485
3.10343e-07
-6.82502e-06
0.00101134
4.54651e-07
-6.26998e-06
0.0010178
5.83667e-07
-6.17849e-06
0.00102441
7.03558e-07
-6.26818e-06
0.00103134
8.20892e-07
-6.53739e-06
0.00103877
9.40233e-07
-6.98421e-06
0.00104686
1.06511e-06
-7.60182e-06
0.00105581
1.19953e-06
-8.39709e-06
0.0010658
1.34865e-06
-9.39392e-06
0.0010771
1.51882e-06
-1.06322e-05
0.00109001
1.71762e-06
-1.21695e-05
0.00110492
1.9543e-06
-1.40885e-05
0.00112237
2.24022e-06
-1.65101e-05
0.00114306
2.58952e-06
-1.96215e-05
0.00116802
3.01954e-06
-2.37309e-05
0.00119886
3.55109e-06
-2.93903e-05
0.00123826
4.20811e-06
-3.76765e-05
0.00129135
5.0132e-06
-5.10206e-05
5.99927e-06
-7.45917e-05
0.00136843
0.00099782
7.56593e-08
-1.03153e-05
0.00100478
1.56307e-07
-6.80425e-06
0.00101125
2.29144e-07
-6.25007e-06
0.00101771
2.94122e-07
-6.16378e-06
0.00102431
3.54595e-07
-6.25602e-06
0.00103124
4.14257e-07
-6.52333e-06
0.00103868
4.75487e-07
-6.96529e-06
0.00104678
5.39913e-07
-7.57623e-06
0.00105573
6.09419e-07
-8.36316e-06
0.00106574
6.86563e-07
-9.34982e-06
0.00107707
7.7458e-07
-1.0576e-05
0.00109001
8.77398e-07
-1.20996e-05
0.00110497
9.99797e-07
-1.4003e-05
0.00112247
1.14766e-06
-1.64075e-05
0.00114323
1.32822e-06
-1.94997e-05
0.00116829
1.55029e-06
-2.35879e-05
0.00119924
1.8243e-06
-2.92236e-05
0.00123877
2.16206e-06
-3.74824e-05
0.001292
2.57347e-06
-5.07937e-05
3.08352e-06
-7.43365e-05
0.00136926
0.000997792
4.76339e-11
-1.03099e-05
0.00100474
9.97925e-11
-6.79471e-06
0.00101121
1.53994e-10
-6.2405e-06
0.00101766
2.11272e-10
-6.15654e-06
0.00102427
2.73172e-10
-6.2504e-06
0.0010312
3.41147e-10
-6.51747e-06
0.00103864
4.16822e-10
-6.95798e-06
0.00104674
5.0212e-10
-7.56707e-06
0.0010557
5.99273e-10
-8.35202e-06
0.00106573
7.10816e-10
-9.33658e-06
0.00107706
8.39628e-10
-1.05605e-05
0.00109002
9.89003e-10
-1.20815e-05
0.001105
1.16272e-09
-1.39818e-05
0.00112253
1.36507e-09
-1.63825e-05
0.00114333
1.60088e-09
-1.94702e-05
0.00116843
1.87537e-09
-2.35526e-05
0.00119944
2.19392e-09
-2.91806e-05
0.00123903
2.5616e-09
-3.74296e-05
0.00129233
2.97899e-09
-5.07275e-05
3.46654e-09
-7.42632e-05
0.00136967
0.000997791
-7.55652e-08
-1.03099e-05
0.00100474
-1.5611e-07
-6.79471e-06
0.00101121
-2.28839e-07
-6.2405e-06
0.00101766
-2.93704e-07
-6.15654e-06
0.00102427
-3.54054e-07
-6.2504e-06
0.0010312
-4.13581e-07
-6.51747e-06
0.00103864
-4.74662e-07
-6.95798e-06
0.00104674
-5.38919e-07
-7.56707e-06
0.0010557
-6.08233e-07
-8.35202e-06
0.00106573
-6.85156e-07
-9.33658e-06
0.00107706
-7.72918e-07
-1.05605e-05
0.00109002
-8.7544e-07
-1.20815e-05
0.001105
-9.97496e-07
-1.39818e-05
0.00112253
-1.14496e-06
-1.63825e-05
0.00114333
-1.32505e-06
-1.94702e-05
0.00116843
-1.54658e-06
-2.35525e-05
0.00119944
-1.81996e-06
-2.91806e-05
0.00123903
-2.15699e-06
-3.74296e-05
0.00129233
-2.56757e-06
-5.07274e-05
-3.07666e-06
-7.42632e-05
0.00136967
0.00099782
-1.5035e-07
-1.03153e-05
0.00100478
-3.10152e-07
-6.80425e-06
0.00101125
-4.54357e-07
-6.25007e-06
0.00101771
-5.83263e-07
-6.16378e-06
0.00102431
-7.03035e-07
-6.25602e-06
0.00103124
-8.20238e-07
-6.52333e-06
0.00103868
-9.39434e-07
-6.96529e-06
0.00104678
-1.06414e-06
-7.57622e-06
0.00105573
-1.19838e-06
-8.36315e-06
0.00106574
-1.34729e-06
-9.34981e-06
0.00107707
-1.51721e-06
-1.0576e-05
0.00109001
-1.71573e-06
-1.20996e-05
0.00110497
-1.95207e-06
-1.4003e-05
0.00112247
-2.23761e-06
-1.64074e-05
0.00114323
-2.58646e-06
-1.94997e-05
0.00116829
-3.01595e-06
-2.35879e-05
0.00119924
-3.54689e-06
-2.92235e-05
0.00123877
-4.20321e-06
-3.74823e-05
0.001292
-5.00749e-06
-5.07936e-05
-5.99265e-06
-7.43364e-05
0.00136926
0.000997877
-2.22669e-07
-1.03275e-05
0.00100485
-4.58379e-07
-6.82502e-06
0.00101134
-6.72127e-07
-6.26997e-06
0.0010178
-8.64439e-07
-6.17848e-06
0.00102441
-1.04198e-06
-6.26818e-06
0.00103134
-1.21267e-06
-6.53738e-06
0.00103877
-1.383e-06
-6.9842e-06
0.00104686
-1.55834e-06
-7.60181e-06
0.00105581
-1.74467e-06
-8.39708e-06
0.0010658
-1.94954e-06
-9.39391e-06
0.0010771
-2.1822e-06
-1.06322e-05
0.00109001
-2.45375e-06
-1.21695e-05
0.00110493
-2.77763e-06
-1.40885e-05
0.00112237
-3.17043e-06
-1.65101e-05
0.00114306
-3.65282e-06
-1.96214e-05
0.00116802
-4.25042e-06
-2.37308e-05
0.00119886
-4.99453e-06
-2.93902e-05
0.00123826
-5.92215e-06
-3.76764e-05
0.00129135
-7.07234e-06
-5.10204e-05
-8.48775e-06
-7.45915e-05
0.00136843
0.000997962
-2.87323e-07
-1.03508e-05
0.00100496
-5.9149e-07
-6.86222e-06
0.00101146
-8.74473e-07
-6.30288e-06
0.00101793
-1.12967e-06
-6.20198e-06
0.00102454
-1.35923e-06
-6.28765e-06
0.00103146
-1.57501e-06
-6.55725e-06
0.00103887
-1.78846e-06
-7.00483e-06
0.00104694
-2.00743e-06
-7.62197e-06
0.00105585
-2.23915e-06
-8.4159e-06
0.00106581
-2.49242e-06
-9.41136e-06
0.00107705
-2.77807e-06
-1.0649e-05
0.0010899
-3.10915e-06
-1.21876e-05
0.00110473
-3.50174e-06
-1.41104e-05
0.00112208
-3.97602e-06
-1.65396e-05
0.00114265
-4.55761e-06
-1.96633e-05
0.00116747
-5.27896e-06
-2.37913e-05
0.00119813
-6.18068e-06
-2.94768e-05
0.00123732
-7.31217e-06
-3.77988e-05
0.00129017
-8.7286e-06
-5.11912e-05
-1.04737e-05
-7.48128e-05
0.00136697
0.000998073
-3.28431e-07
-1.03947e-05
0.0010051
-6.90038e-07
-6.92467e-06
0.00101163
-1.05973e-06
-6.35291e-06
0.00101813
-1.3836e-06
-6.24376e-06
0.00102476
-1.64802e-06
-6.33961e-06
0.0010317
-1.8768e-06
-6.6317e-06
0.00103911
-2.09124e-06
-7.10792e-06
0.00104716
-2.30363e-06
-7.7579e-06
0.00105604
-2.52466e-06
-8.58808e-06
0.00106593
-2.76647e-06
-9.62219e-06
0.0010771
-3.04256e-06
-1.09e-05
0.00108984
-3.36799e-06
-1.24797e-05
0.00110454
-3.76071e-06
-1.44447e-05
0.00112173
-4.24309e-06
-1.69177e-05
0.0011421
-4.84373e-06
-2.00876e-05
0.00116669
-5.59946e-06
-2.42656e-05
0.00119708
-6.55777e-06
-3.00066e-05
0.00123594
-7.77923e-06
-3.83924e-05
0.00128841
-9.3399e-06
-5.18609e-05
-1.12955e-05
-7.55637e-05
0.0013648
0.000998178
-2.84271e-07
-1.04833e-05
0.0010052
-6.88025e-07
-7.02435e-06
0.00101172
-1.17487e-06
-6.40088e-06
0.00101816
-1.5743e-06
-6.2466e-06
0.0010247
-1.88802e-06
-6.30548e-06
0.00103154
-2.16418e-06
-6.55452e-06
0.00103886
-2.42088e-06
-6.98167e-06
0.0010468
-2.66405e-06
-7.58292e-06
0.00105555
-2.90334e-06
-8.36973e-06
0.0010653
-3.15174e-06
-9.36897e-06
0.00107631
-3.42316e-06
-1.06228e-05
0.00108887
-3.73265e-06
-1.21912e-05
0.00110336
-4.09806e-06
-1.41595e-05
0.00112032
-4.54181e-06
-1.66518e-05
0.00114042
-5.09273e-06
-1.98588e-05
0.00116471
-5.78851e-06
-2.40935e-05
0.00119474
-6.67897e-06
-2.99135e-05
0.0012332
-7.82992e-06
-3.84041e-05
0.0012852
-9.32897e-06
-5.20081e-05
-1.1221e-05
-7.58685e-05
0.00136099
0.000998239
-2.12943e-08
-1.06721e-05
0.00100549
-7.08926e-07
-7.22507e-06
0.0010122
-1.29698e-06
-6.59028e-06
0.00101868
-1.55125e-06
-6.5058e-06
0.00102516
-1.69923e-06
-6.66446e-06
0.00103184
-1.8391e-06
-7.0108e-06
0.00103893
-1.97414e-06
-7.52998e-06
0.00104659
-2.10436e-06
-8.21862e-06
0.00105501
-2.2395e-06
-9.08669e-06
0.00106441
-2.39036e-06
-1.01601e-05
0.00107504
-2.5663e-06
-1.14817e-05
0.0010872
-2.77729e-06
-1.31132e-05
0.00110128
-3.03605e-06
-1.51423e-05
0.00111779
-3.35967e-06
-1.7696e-05
0.00113744
-3.77128e-06
-2.09685e-05
0.00116123
-4.30258e-06
-2.52762e-05
0.00119073
-4.99768e-06
-3.11811e-05
0.0012286
-5.91952e-06
-3.97735e-05
0.00127994
-7.16749e-06
-5.35015e-05
-8.79504e-06
-7.75109e-05
0.00135503
0.000996501
2.122e-06
-1.07748e-05
0.00100331
-6.2737e-07
-6.88645e-06
0.00100958
-1.63385e-06
-5.94013e-06
0.00101561
-1.93879e-06
-5.64299e-06
0.00102167
-2.16383e-06
-5.59367e-06
0.00102793
-2.34429e-06
-5.75025e-06
0.00103454
-2.46568e-06
-6.11975e-06
0.00104169
-2.54697e-06
-6.70266e-06
0.00104957
-2.61111e-06
-7.50557e-06
0.0010584
-2.67178e-06
-8.55046e-06
0.00106845
-2.73691e-06
-9.8765e-06
0.00108003
-2.81379e-06
-1.15423e-05
0.00109354
-2.91122e-06
-1.36332e-05
0.00110949
-3.04068e-06
-1.62755e-05
0.0011286
-3.21787e-06
-1.96636e-05
0.00115188
-3.46486e-06
-2.41167e-05
0.0011809
-3.81366e-06
-3.02008e-05
0.00121831
-4.31242e-06
-3.90149e-05
0.00126921
-5.04702e-06
-5.3016e-05
-6.01394e-06
-7.73571e-05
0.00134379
0.000996198
3.57184e-06
-1.07097e-05
0.00100166
-3.41991e-07
-5.75155e-06
0.00100567
-8.51687e-07
-4.78618e-06
0.00100955
-1.21319e-06
-4.61012e-06
0.0010136
-1.52951e-06
-4.68154e-06
0.00101797
-1.73093e-06
-4.9801e-06
0.00102284
-1.82911e-06
-5.50418e-06
0.00102839
-1.86478e-06
-6.23754e-06
0.00103483
-1.86658e-06
-7.17933e-06
0.00104236
-1.84896e-06
-8.35005e-06
0.00105123
-1.81955e-06
-9.79023e-06
0.00106176
-1.78375e-06
-1.15616e-05
0.00107435
-1.74672e-06
-1.37527e-05
0.00108952
-1.71434e-06
-1.64939e-05
0.00110798
-1.69427e-06
-1.99852e-05
0.00113077
-1.69758e-06
-2.45537e-05
0.00115948
-1.74186e-06
-3.07779e-05
0.0011968
-1.85713e-06
-3.9777e-05
0.00124791
-2.12438e-06
-5.4026e-05
-2.37866e-06
-7.87339e-05
0.00132301
0.0010025
-4.16175e-06
0.00100302
-8.61614e-07
0.00100312
-9.5359e-07
0.00100312
-1.21008e-06
0.00100314
-1.54727e-06
0.00100347
-2.05877e-06
0.0010044
-2.7584e-06
0.00100617
-3.63359e-06
0.00100899
-4.68866e-06
0.00101309
-5.95291e-06
0.00101875
-7.47505e-06
0.00102629
-9.32335e-06
0.00103614
-1.15932e-05
0.00104885
-1.44228e-05
0.00106518
-1.80236e-05
0.00108622
-2.2741e-05
0.00111367
-2.91848e-05
0.00115034
-3.85339e-05
0.00120156
-5.33352e-05
-7.90931e-05
0.00127827
0.000996281
-1.01217e-05
-3.19617e-06
0.00100159
-4.53055e-06
-1.63879e-06
0.00100539
-2.91581e-06
-1.83644e-06
0.00100902
-2.05846e-06
-2.78642e-06
0.00101278
-1.39624e-06
-3.90861e-06
0.00101682
-8.87367e-07
-5.2094e-06
0.00102132
-5.05906e-07
-6.75068e-06
0.00102646
-2.07592e-07
-8.56927e-06
0.00103244
4.15935e-08
-1.07093e-05
0.00103946
2.64325e-07
-1.3237e-05
0.00104776
4.77892e-07
-1.62481e-05
0.00105762
6.94972e-07
-1.98747e-05
0.00106939
9.26604e-07
-2.42918e-05
0.00108353
1.1846e-06
-2.9743e-05
0.0011006
1.48331e-06
-3.65816e-05
0.00112136
1.84164e-06
-4.53427e-05
0.00114677
2.28605e-06
-5.6873e-05
0.00117794
2.85629e-06
-7.25622e-05
0.00121579
3.59515e-06
-9.4781e-05
4.31131e-06
-0.000127085
0.00125947
0.00113137
-2.25827e-06
-3.29388e-06
0.0011247
-7.28542e-07
-2.87702e-06
0.00112013
8.86748e-08
-3.21708e-06
0.00111723
3.84182e-07
-4.15178e-06
0.00111589
5.64669e-07
-5.30665e-06
0.00111592
7.26663e-07
-6.62283e-06
0.00111718
8.73406e-07
-8.14097e-06
0.00111962
1.01371e-06
-9.90447e-06
0.00112329
1.16199e-06
-1.19618e-05
0.00112826
1.32819e-06
-1.43816e-05
0.00113468
1.52027e-06
-1.72572e-05
0.00114278
1.7472e-06
-2.07102e-05
0.00115284
2.01987e-06
-2.49051e-05
0.00116525
2.3525e-06
-3.00709e-05
0.00118052
2.76452e-06
-3.654e-05
0.00119935
3.28285e-06
-4.48154e-05
0.0012226
3.94454e-06
-5.56926e-05
0.00125137
4.80224e-06
-7.04838e-05
0.00128649
5.91361e-06
-9.14716e-05
7.19789e-06
-0.000121838
0.00132671
0.00114271
2.11204e-07
-8.28374e-06
0.00114179
5.86166e-07
-7.27518e-06
0.00114178
1.06751e-06
-6.9126e-06
0.00114242
1.39374e-06
-7.29279e-06
0.00114377
1.60941e-06
-7.97928e-06
0.00114582
1.7874e-06
-8.86952e-06
0.00114862
1.95071e-06
-9.99472e-06
0.00115223
2.10815e-06
-1.1402e-05
0.00115676
2.27141e-06
-1.31406e-05
0.00116235
2.45341e-06
-1.52734e-05
0.00116922
2.66639e-06
-1.78837e-05
0.00117758
2.92312e-06
-2.1084e-05
0.00118776
3.23899e-06
-2.50301e-05
0.00120015
3.63336e-06
-2.99414e-05
0.00121526
4.13129e-06
-3.61372e-05
0.00123376
4.76565e-06
-4.4102e-05
0.00125653
5.58006e-06
-5.46067e-05
0.00128461
6.6332e-06
-6.89282e-05
0.00131882
7.99807e-06
-8.93069e-05
9.65844e-06
-0.000118768
0.00135777
0.0011448
3.97765e-07
-8.21104e-06
0.00114563
7.36672e-07
-8.20321e-06
0.0011472
1.09009e-06
-8.18243e-06
0.0011494
1.41363e-06
-8.72793e-06
0.00115223
1.66922e-06
-9.55036e-06
0.00115567
1.87735e-06
-1.05425e-05
0.00115975
2.06339e-06
-1.17236e-05
0.00116454
2.24326e-06
-1.31428e-05
0.00117015
2.43035e-06
-1.48552e-05
0.00117674
2.63867e-06
-1.69277e-05
0.00118449
2.88267e-06
-1.94469e-05
0.00119365
3.17779e-06
-2.25278e-05
0.00120453
3.54197e-06
-2.63258e-05
0.00121753
3.99732e-06
-3.1058e-05
0.00123316
4.57183e-06
-3.70389e-05
0.00125209
5.30149e-06
-4.4746e-05
0.0012752
6.23268e-06
-5.49389e-05
0.00130351
7.42468e-06
-6.88766e-05
0.00133784
8.94889e-06
-8.87756e-05
1.08044e-05
-0.000117615
0.0013768
0.00114468
3.65468e-07
-7.86056e-06
0.0011458
7.0012e-07
-8.10556e-06
0.00114778
9.96244e-07
-8.28497e-06
0.00115055
1.27633e-06
-8.87786e-06
0.00115407
1.53146e-06
-9.68929e-06
0.00115828
1.76212e-06
-1.06494e-05
0.00116317
1.97952e-06
-1.17812e-05
0.00116877
2.19517e-06
-1.31354e-05
0.00117518
2.41965e-06
-1.47716e-05
0.00118255
2.66446e-06
-1.67598e-05
0.00119105
2.94273e-06
-1.9188e-05
0.00120094
3.26968e-06
-2.21704e-05
0.00121252
3.66352e-06
-2.58605e-05
0.00122619
4.14679e-06
-3.04718e-05
0.00124247
4.74781e-06
-3.63144e-05
0.00126204
5.50246e-06
-4.38597e-05
0.00128576
6.45604e-06
-5.38592e-05
0.00131468
7.66499e-06
-6.75602e-05
0.00134959
9.19632e-06
-8.71634e-05
1.10631e-05
-0.000115631
0.00138909
0.00114449
2.94061e-07
-7.68491e-06
0.00114565
5.76627e-07
-7.9592e-06
0.00114773
8.16004e-07
-8.25894e-06
0.00115066
1.03436e-06
-8.92524e-06
0.00115438
1.24405e-06
-9.77772e-06
0.00115884
1.44693e-06
-1.07757e-05
0.00116402
1.64627e-06
-1.19465e-05
0.00116994
1.84845e-06
-1.33357e-05
0.00117671
2.06155e-06
-1.49983e-05
0.00118446
2.29508e-06
-1.70015e-05
0.00119337
2.56035e-06
-1.9431e-05
0.00120369
2.87083e-06
-2.23986e-05
0.00121573
3.24295e-06
-2.60554e-05
0.00122987
3.69703e-06
-3.06121e-05
0.00124665
4.25853e-06
-3.6376e-05
0.00126674
4.95935e-06
-4.38143e-05
0.00129103
5.83914e-06
-5.36732e-05
0.00132055
6.94618e-06
-6.71925e-05
0.00135611
8.33521e-06
-8.65632e-05
1.00214e-05
-0.000114747
0.00139634
0.00114433
2.18705e-07
-7.59537e-06
0.00114546
4.35337e-07
-7.84927e-06
0.00114755
6.20492e-07
-8.1944e-06
0.00115049
7.85117e-07
-8.8954e-06
0.00115425
9.44764e-07
-9.75321e-06
0.00115878
1.10558e-06
-1.07408e-05
0.00116405
1.26936e-06
-1.18947e-05
0.0011701
1.43922e-06
-1.3262e-05
0.00117702
1.62058e-06
-1.48973e-05
0.00118495
1.8206e-06
-1.68683e-05
0.00119408
2.04793e-06
-1.92606e-05
0.00120463
2.3131e-06
-2.21861e-05
0.00121693
2.62903e-06
-2.57948e-05
0.00123138
3.01186e-06
-3.02964e-05
0.00124849
3.4818e-06
-3.59961e-05
0.00126895
4.06409e-06
-4.33586e-05
0.00129365
4.78982e-06
-5.31267e-05
0.00132364
5.69645e-06
-6.65349e-05
0.00135973
6.82591e-06
-8.57677e-05
8.19718e-06
-0.000113787
0.00140053
0.00114421
1.44528e-07
-7.54727e-06
0.00114531
2.90278e-07
-7.77962e-06
0.00114739
4.16683e-07
-8.14174e-06
0.00115034
5.27526e-07
-8.86598e-06
0.00115411
6.34059e-07
-9.73357e-06
0.00115866
7.43068e-07
-1.07204e-05
0.00116396
8.5649e-07
-1.18701e-05
0.00117005
9.75861e-07
-1.32327e-05
0.00117704
1.10442e-06
-1.48627e-05
0.00118504
1.24696e-06
-1.68269e-05
0.00119426
1.40947e-06
-1.92104e-05
0.00120493
1.59921e-06
-2.21241e-05
0.00121737
1.82514e-06
-2.57171e-05
0.00123197
2.09841e-06
-3.01977e-05
0.00124927
2.43297e-06
-3.58695e-05
0.00126995
2.84612e-06
-4.31955e-05
0.00129491
3.35894e-06
-5.29161e-05
0.0013252
3.99659e-06
-6.62628e-05
0.00136163
4.78627e-06
-8.54161e-05
5.74447e-06
-0.000113343
0.00140284
0.00114414
7.18306e-08
-7.52198e-06
0.00114522
1.44952e-07
-7.73962e-06
0.00114729
2.0907e-07
-8.10702e-06
0.00115023
2.65069e-07
-8.84406e-06
0.00115401
3.18498e-07
-9.71845e-06
0.00115856
3.73513e-07
-1.0704e-05
0.00116387
4.31487e-07
-1.18479e-05
0.00116998
4.93103e-07
-1.32025e-05
0.00117698
5.59851e-07
-1.48226e-05
0.00118502
6.34126e-07
-1.67747e-05
0.00119428
7.18988e-07
-1.91438e-05
0.001205
8.18139e-07
-2.20406e-05
0.00121751
9.36128e-07
-2.56143e-05
0.00123219
1.07862e-06
-3.00729e-05
0.00124959
1.25268e-06
-3.57197e-05
0.0012704
1.46702e-06
-4.3017e-05
0.00129551
1.73226e-06
-5.27044e-05
0.00132598
2.06101e-06
-6.60121e-05
0.00136263
2.46656e-06
-8.51189e-05
2.96104e-06
-0.000112996
0.00140407
0.00114411
4.27697e-11
-7.51104e-06
0.00114518
8.83702e-11
-7.72149e-06
0.00114724
1.365e-10
-8.0901e-06
0.00115018
1.87986e-10
-8.83274e-06
0.00115396
2.44007e-10
-9.71081e-06
0.00115851
3.05877e-10
-1.06963e-05
0.00116382
3.7511e-10
-1.18379e-05
0.00116994
4.5348e-10
-1.31892e-05
0.00117695
5.43037e-10
-1.48054e-05
0.001185
6.46129e-10
-1.67532e-05
0.00119428
7.65461e-10
-1.91171e-05
0.00120502
9.04175e-10
-2.20081e-05
0.00121755
1.06592e-09
-2.55751e-05
0.00123228
1.25492e-09
-3.0026e-05
0.00124972
1.47602e-09
-3.56637e-05
0.00127059
1.73468e-09
-4.29503e-05
0.00129576
2.03701e-09
-5.26248e-05
0.00132631
2.38979e-09
-6.59169e-05
0.00136305
2.79896e-09
-8.50046e-05
3.27451e-09
-0.000112863
0.00140461
0.00114411
-7.17459e-08
-7.51103e-06
0.00114518
-1.44777e-07
-7.72149e-06
0.00114724
-2.08799e-07
-8.0901e-06
0.00115018
-2.64696e-07
-8.83274e-06
0.00115396
-3.18014e-07
-9.71081e-06
0.00115851
-3.72907e-07
-1.06963e-05
0.00116382
-4.30744e-07
-1.18379e-05
0.00116994
-4.92205e-07
-1.31892e-05
0.00117695
-5.58775e-07
-1.48054e-05
0.001185
-6.32847e-07
-1.67532e-05
0.00119428
-7.17473e-07
-1.91171e-05
0.00120502
-8.16349e-07
-2.20081e-05
0.00121755
-9.34018e-07
-2.55751e-05
0.00123228
-1.07614e-06
-3.0026e-05
0.00124972
-1.24976e-06
-3.56637e-05
0.00127059
-1.46359e-06
-4.29502e-05
0.00129576
-1.72823e-06
-5.26247e-05
0.00132631
-2.05628e-06
-6.59169e-05
0.00136305
-2.46102e-06
-8.50045e-05
-2.95456e-06
-0.000112863
0.00140461
0.00114414
-1.44446e-07
-7.52198e-06
0.00114522
-2.90108e-07
-7.73962e-06
0.00114729
-4.1642e-07
-8.10701e-06
0.00115023
-5.27164e-07
-8.84406e-06
0.00115401
-6.3359e-07
-9.71844e-06
0.00115856
-7.4248e-07
-1.0704e-05
0.00116387
-8.55769e-07
-1.18479e-05
0.00116998
-9.7499e-07
-1.32025e-05
0.00117698
-1.10337e-06
-1.48226e-05
0.00118502
-1.24572e-06
-1.67747e-05
0.00119428
-1.408e-06
-1.91437e-05
0.00120501
-1.59748e-06
-2.20406e-05
0.00121751
-1.8231e-06
-2.56143e-05
0.00123219
-2.09601e-06
-3.00729e-05
0.00124959
-2.43015e-06
-3.57196e-05
0.0012704
-2.84279e-06
-4.30169e-05
0.00129551
-3.35503e-06
-5.27043e-05
0.00132598
-3.99201e-06
-6.6012e-05
0.00136263
-4.78091e-06
-8.51187e-05
-5.73821e-06
-0.000112996
0.00140407
0.00114421
-2.18628e-07
-7.54726e-06
0.00114531
-4.35177e-07
-7.77961e-06
0.00114739
-6.20243e-07
-8.14173e-06
0.00115034
-7.84775e-07
-8.86597e-06
0.00115411
-9.4432e-07
-9.73356e-06
0.00115866
-1.10503e-06
-1.07204e-05
0.00116396
-1.26868e-06
-1.18701e-05
0.00117005
-1.4384e-06
-1.32327e-05
0.00117704
-1.6196e-06
-1.48627e-05
0.00118504
-1.81942e-06
-1.68269e-05
0.00119426
-2.04654e-06
-1.92104e-05
0.00120493
-2.31146e-06
-2.2124e-05
0.00121737
-2.6271e-06
-2.5717e-05
0.00123197
-3.00958e-06
-3.01976e-05
0.00124927
-3.47913e-06
-3.58694e-05
0.00126995
-4.06095e-06
-4.31954e-05
0.00129491
-4.78613e-06
-5.29159e-05
0.0013252
-5.69212e-06
-6.62626e-05
0.00136163
-6.82084e-06
-8.54158e-05
-8.19126e-06
-0.000113343
0.00140284
0.00114433
-2.9399e-07
-7.59536e-06
0.00114546
-5.76479e-07
-7.84926e-06
0.00114754
-8.15776e-07
-8.19439e-06
0.00115049
-1.03404e-06
-8.89539e-06
0.00115425
-1.24364e-06
-9.7532e-06
0.00115878
-1.44641e-06
-1.07408e-05
0.00116405
-1.64564e-06
-1.18946e-05
0.0011701
-1.84769e-06
-1.32619e-05
0.00117702
-2.06064e-06
-1.48973e-05
0.00118495
-2.294e-06
-1.68683e-05
0.00119408
-2.55907e-06
-1.92606e-05
0.00120464
-2.86932e-06
-2.2186e-05
0.00121693
-3.24117e-06
-2.57947e-05
0.00123138
-3.69494e-06
-3.02963e-05
0.00124849
-4.25607e-06
-3.5996e-05
0.00126895
-4.95646e-06
-4.33585e-05
0.00129365
-5.83575e-06
-5.31265e-05
0.00132364
-6.94221e-06
-6.65346e-05
0.00135973
-8.33055e-06
-8.57673e-05
-1.0016e-05
-0.000113787
0.00140053
0.00114449
-3.65406e-07
-7.6849e-06
0.00114565
-6.9999e-07
-7.95919e-06
0.00114773
-9.96041e-07
-8.25892e-06
0.00115066
-1.27605e-06
-8.92522e-06
0.00115438
-1.5311e-06
-9.7777e-06
0.00115884
-1.76167e-06
-1.07757e-05
0.00116402
-1.97896e-06
-1.19465e-05
0.00116994
-2.19449e-06
-1.33357e-05
0.00117671
-2.41884e-06
-1.49983e-05
0.00118446
-2.66349e-06
-1.70015e-05
0.00119338
-2.94159e-06
-1.94309e-05
0.00120369
-3.26833e-06
-2.23986e-05
0.00121573
-3.66194e-06
-2.60553e-05
0.00122987
-4.14493e-06
-3.0612e-05
0.00124665
-4.74563e-06
-3.63758e-05
0.00126674
-5.4999e-06
-4.3814e-05
0.00129103
-6.45303e-06
-5.36729e-05
0.00132055
-7.66147e-06
-6.71921e-05
0.00135612
-9.19219e-06
-8.65627e-05
-1.10582e-05
-0.000114746
0.00139634
0.00114468
-3.97713e-07
-7.86056e-06
0.0011458
-7.36563e-07
-8.10554e-06
0.00114778
-1.08991e-06
-8.28495e-06
0.00115055
-1.41339e-06
-8.87784e-06
0.00115407
-1.66891e-06
-9.68926e-06
0.00115828
-1.87696e-06
-1.06494e-05
0.00116317
-2.06291e-06
-1.17811e-05
0.00116877
-2.24268e-06
-1.31354e-05
0.00117518
-2.42965e-06
-1.47715e-05
0.00118255
-2.63785e-06
-1.67597e-05
0.00119105
-2.8817e-06
-1.91879e-05
0.00120094
-3.17665e-06
-2.21703e-05
0.00121252
-3.54063e-06
-2.58603e-05
0.00122619
-3.99574e-06
-3.04716e-05
0.00124248
-4.56998e-06
-3.63142e-05
0.00126204
-5.29932e-06
-4.38594e-05
0.00128577
-6.23013e-06
-5.38589e-05
0.00131468
-7.42169e-06
-6.75597e-05
0.00134959
-8.94538e-06
-8.71628e-05
-1.08003e-05
-0.00011563
0.0013891
0.0011448
-2.11163e-07
-8.21103e-06
0.00114563
-5.86077e-07
-8.20319e-06
0.0011472
-1.06737e-06
-8.1824e-06
0.0011494
-1.39354e-06
-8.7279e-06
0.00115223
-1.60916e-06
-9.55032e-06
0.00115567
-1.78708e-06
-1.05424e-05
0.00115975
-1.95033e-06
-1.17236e-05
0.00116454
-2.10768e-06
-1.31428e-05
0.00117015
-2.27085e-06
-1.48551e-05
0.00117674
-2.45275e-06
-1.69276e-05
0.00118449
-2.66561e-06
-1.94468e-05
0.00119365
-2.92221e-06
-2.25276e-05
0.00120453
-3.23792e-06
-2.63257e-05
0.00121753
-3.63211e-06
-3.10578e-05
0.00123316
-4.12982e-06
-3.70387e-05
0.0012521
-4.76393e-06
-4.47457e-05
0.0012752
-5.57804e-06
-5.49385e-05
0.00130352
-6.63083e-06
-6.88761e-05
0.00133784
-7.99529e-06
-8.87749e-05
-9.65517e-06
-0.000117614
0.0013768
0.00114271
2.2583e-06
-8.28372e-06
0.00114179
7.28613e-07
-7.27515e-06
0.00114178
-8.85641e-08
-6.91256e-06
0.00114242
-3.84026e-07
-7.29275e-06
0.00114377
-5.64471e-07
-7.97923e-06
0.00114582
-7.26421e-07
-8.86947e-06
0.00114862
-8.73114e-07
-9.99465e-06
0.00115223
-1.01336e-06
-1.14019e-05
0.00115676
-1.16158e-06
-1.31405e-05
0.00116235
-1.3277e-06
-1.52733e-05
0.00116922
-1.51971e-06
-1.78836e-05
0.00117758
-1.74654e-06
-2.10839e-05
0.00118776
-2.0191e-06
-2.503e-05
0.00120015
-2.3516e-06
-2.99412e-05
0.00121526
-2.76347e-06
-3.61369e-05
0.00123376
-3.28162e-06
-4.41017e-05
0.00125653
-3.9431e-06
-5.46063e-05
0.00128462
-4.80055e-06
-6.89277e-05
0.00131883
-5.91162e-06
-8.93061e-05
-7.19554e-06
-0.000118767
0.00135778
0.00113137
1.01217e-05
-3.29386e-06
0.0011247
4.53054e-06
-2.87699e-06
0.00112013
2.91584e-06
-3.21704e-06
0.00111723
2.05852e-06
-4.15173e-06
0.00111589
1.39632e-06
-5.3066e-06
0.00111592
8.87472e-07
-6.62276e-06
0.00111718
5.06034e-07
-8.14089e-06
0.00111962
2.07746e-07
-9.90438e-06
0.00112329
-4.14115e-08
-1.19617e-05
0.00112826
-2.64109e-07
-1.43815e-05
0.00113468
-4.77634e-07
-1.72571e-05
0.00114278
-6.94665e-07
-2.071e-05
0.00115284
-9.26239e-07
-2.49049e-05
0.00116525
-1.18417e-06
-3.00707e-05
0.00118053
-1.4828e-06
-3.65397e-05
0.00119935
-1.84104e-06
-4.48151e-05
0.00122261
-2.28533e-06
-5.56921e-05
0.00125137
-2.85544e-06
-7.04833e-05
0.0012865
-3.59413e-06
-9.14708e-05
-4.31008e-06
-0.000121837
0.00132672
0.000996281
-3.19615e-06
0.00100159
-1.63875e-06
0.00100539
-1.83639e-06
0.00100902
-2.78635e-06
0.00101278
-3.90854e-06
0.00101682
-5.20931e-06
0.00102132
-6.75059e-06
0.00102646
-8.56916e-06
0.00103244
-1.07091e-05
0.00103946
-1.32368e-05
0.00104776
-1.6248e-05
0.00105762
-1.98745e-05
0.00106939
-2.42916e-05
0.00108353
-2.97427e-05
0.0011006
-3.65813e-05
0.00112137
-4.53423e-05
0.00114677
-5.68725e-05
0.00117794
-7.25616e-05
0.0012158
-9.47802e-05
-0.000127084
0.00125948
0.000996945
-1.02413e-05
-1.50418e-06
0.00100357
-5.74293e-06
-2.52037e-06
0.00100957
-4.16227e-06
-3.67772e-06
0.00101524
-3.18936e-06
-5.26015e-06
0.00102083
-2.40472e-06
-7.09561e-06
0.00102651
-1.74681e-06
-9.14493e-06
0.00103243
-1.19983e-06
-1.14715e-05
0.00103876
-7.36978e-07
-1.41538e-05
0.00104566
-3.31899e-07
-1.72774e-05
0.00105334
3.24858e-08
-2.09489e-05
0.00106202
3.72708e-07
-2.53015e-05
0.00107195
7.07137e-07
-3.05073e-05
0.0010834
1.04971e-06
-3.67961e-05
0.00109672
1.41419e-06
-4.44767e-05
0.0011123
1.81563e-06
-5.39731e-05
0.00113057
2.2742e-06
-6.58893e-05
0.00115198
2.81858e-06
-8.11019e-05
0.00117682
3.48874e-06
-0.000100889
0.00120484
4.33028e-06
-0.000127127
5.20021e-06
-0.000162159
0.00123471
0.00114304
-7.27455e-06
-1.20451e-06
0.00114197
-5.18921e-06
-2.35863e-06
0.00114177
-3.70538e-06
-3.47116e-06
0.00114216
-2.89023e-06
-4.84656e-06
0.00114321