/*--------------------------------*- C++ -*----------------------------------*\
  =========                 |
  \\      /  F ield         | OpenFOAM: The Open Source CFD Toolbox
   \\    /   O peration     | Website:  https://openfoam.org
    \\  /    A nd           | Version:  10
     \\/     M anipulation  |
\*---------------------------------------------------------------------------*/
FoamFile
{
    format      ascii;
    class       volScalarField;
    location    "300";
    object      rho;
}
// * * * * * * * * * * * * * * * * * * * * * * * * * * * * * * * * * * * * * //

dimensions      [1 -3 0 0 0 0 0];

internalField   nonuniform List<scalar> 
112000
(
0.458405
0.456979
0.455827
0.455131
0.454623
0.454127
0.453585
0.452978
0.452287
0.451489
0.450555
0.449453
0.448138
0.446557
0.444632
0.442255
0.439266
0.43541
0.430199
0.423783
0.454833
0.45471
0.454444
0.454216
0.453995
0.453718
0.453356
0.452898
0.452332
0.451641
0.450798
0.449774
0.448526
0.447
0.44512
0.442775
0.439804
0.435947
0.430699
0.424269
0.455242
0.455279
0.455167
0.454969
0.454722
0.454419
0.45404
0.453572
0.452998
0.452299
0.45145
0.45042
0.449164
0.447629
0.445734
0.443371
0.440372
0.436475
0.431161
0.424677
0.455253
0.455155
0.454957
0.454739
0.454503
0.454227
0.453884
0.453455
0.45292
0.452259
0.451445
0.450445
0.449217
0.447704
0.445826
0.443472
0.440473
0.436563
0.431212
0.424697
0.455212
0.455105
0.454928
0.454755
0.454565
0.454323
0.454006
0.453598
0.45308
0.452432
0.451629
0.450638
0.449417
0.447906
0.446028
0.443668
0.440654
0.436717
0.431317
0.424755
0.455165
0.455057
0.454878
0.454705
0.454511
0.454263
0.453942
0.453531
0.453012
0.452366
0.451566
0.450578
0.449359
0.447851
0.445971
0.443606
0.44058
0.436623
0.431186
0.424586
0.455124
0.455016
0.454839
0.454669
0.45448
0.454237
0.453922
0.453516
0.453002
0.45236
0.451563
0.450577
0.449357
0.447846
0.445961
0.443585
0.440544
0.436562
0.431088
0.424447
0.455092
0.454985
0.454809
0.454641
0.454453
0.454211
0.453894
0.453486
0.452971
0.452325
0.451525
0.450534
0.44931
0.447792
0.445898
0.443511
0.440454
0.436451
0.430948
0.424272
0.45507
0.454963
0.454789
0.454622
0.454435
0.454193
0.453876
0.453468
0.452952
0.452306
0.451504
0.450512
0.449285
0.447763
0.445864
0.443469
0.440401
0.436382
0.430858
0.424156
0.455059
0.454952
0.454779
0.454613
0.454426
0.454184
0.453867
0.453458
0.452942
0.452295
0.451492
0.450498
0.449268
0.447744
0.44584
0.44344
0.440366
0.436339
0.430804
0.424087
0.455059
0.454952
0.454779
0.454613
0.454426
0.454184
0.453867
0.453458
0.452942
0.452295
0.451492
0.450498
0.449268
0.447744
0.44584
0.44344
0.440366
0.436339
0.430804
0.424087
0.45507
0.454963
0.454789
0.454622
0.454435
0.454193
0.453876
0.453468
0.452952
0.452306
0.451504
0.450512
0.449285
0.447763
0.445864
0.443468
0.440401
0.436382
0.430858
0.424156
0.455092
0.454984
0.454809
0.454641
0.454453
0.454211
0.453894
0.453486
0.452971
0.452325
0.451525
0.450534
0.44931
0.447792
0.445898
0.443511
0.440454
0.436451
0.430947
0.424272
0.455124
0.455016
0.454839
0.454669
0.45448
0.454237
0.453922
0.453516
0.453002
0.45236
0.451563
0.450576
0.449357
0.447846
0.445961
0.443585
0.440544
0.436562
0.431088
0.424447
0.455165
0.455057
0.454878
0.454705
0.454511
0.454263
0.453942
0.453531
0.453012
0.452366
0.451566
0.450578
0.449359
0.447851
0.445971
0.443605
0.44058
0.436622
0.431185
0.424586
0.455212
0.455105
0.454927
0.454755
0.454565
0.454323
0.454006
0.453597
0.453079
0.452432
0.451629
0.450638
0.449416
0.447906
0.446028
0.443667
0.440653
0.436717
0.431317
0.424755
0.455253
0.455155
0.454957
0.454739
0.454503
0.454227
0.453884
0.453455
0.45292
0.452259
0.451445
0.450445
0.449217
0.447703
0.445826
0.443472
0.440473
0.436563
0.431211
0.424696
0.455241
0.455279
0.455167
0.454969
0.454722
0.454419
0.45404
0.453572
0.452998
0.452299
0.45145
0.450419
0.449164
0.447628
0.445734
0.443371
0.440372
0.436475
0.431161
0.424676
0.454833
0.45471
0.454443
0.454216
0.453995
0.453718
0.453355
0.452898
0.452332
0.45164
0.450798
0.449774
0.448526
0.447
0.445119
0.442775
0.439803
0.435946
0.430699
0.424268
0.458405
0.456978
0.455827
0.455131
0.454623
0.454127
0.453585
0.452978
0.452287
0.451489
0.450555
0.449452
0.448138
0.446556
0.444632
0.442255
0.439266
0.43541
0.430199
0.423783
0.454921
0.454799
0.454535
0.454313
0.454101
0.453836
0.45349
0.453053
0.452514
0.451854
0.451051
0.450076
0.448888
0.447438
0.445654
0.44344
0.440656
0.437094
0.432406
0.426538
0.451222
0.451537
0.45183
0.451942
0.451923
0.4518
0.451577
0.45125
0.450808
0.450237
0.449516
0.448614
0.447495
0.446107
0.44438
0.442216
0.439474
0.435945
0.431278
0.425454
0.451809
0.452368
0.452793
0.452908
0.452817
0.452602
0.452288
0.451872
0.451348
0.450699
0.449904
0.448934
0.44775
0.446298
0.444507
0.442278
0.439466
0.435858
0.431094
0.42519
0.45178
0.452323
0.452719
0.452853
0.452805
0.452638
0.452367
0.451988
0.451492
0.450863
0.450079
0.449113
0.447926
0.446463
0.444654
0.442397
0.439545
0.435883
0.431041
0.425061
0.451715
0.452293
0.452737
0.452932
0.45295
0.452839
0.452613
0.45227
0.451802
0.451192
0.450423
0.449463
0.448276
0.446807
0.444985
0.442705
0.439821
0.436111
0.431201
0.42515
0.451657
0.452243
0.452696
0.452897
0.452922
0.45282
0.452607
0.452278
0.451825
0.451232
0.450478
0.449533
0.448358
0.446897
0.445078
0.442795
0.439898
0.436164
0.431212
0.425117
0.45161
0.452199
0.452657
0.452864
0.452894
0.452801
0.452598
0.452281
0.45184
0.451258
0.450515
0.449579
0.448411
0.446955
0.445137
0.442851
0.439944
0.436192
0.431207
0.425077
0.451575
0.452166
0.452627
0.452836
0.452868
0.452776
0.452573
0.452257
0.451817
0.451237
0.450494
0.449559
0.448391
0.446935
0.445114
0.442822
0.439906
0.436138
0.431129
0.424972
0.451552
0.452143
0.452606
0.452817
0.45285
0.452757
0.452555
0.452239
0.451799
0.451219
0.450477
0.449542
0.448374
0.446916
0.445092
0.442795
0.439871
0.436092
0.431066
0.424889
0.45154
0.452132
0.452596
0.452808
0.452841
0.452748
0.452545
0.452229
0.451789
0.451209
0.450466
0.44953
0.44836
0.4469
0.445073
0.442773
0.439845
0.436059
0.431024
0.424835
0.45154
0.452132
0.452596
0.452808
0.452841
0.452748
0.452545
0.452229
0.451789
0.451209
0.450466
0.44953
0.44836
0.4469
0.445073
0.442773
0.439845
0.436059
0.431024
0.424835
0.451552
0.452143
0.452606
0.452817
0.45285
0.452757
0.452555
0.452239
0.451799
0.451219
0.450477
0.449542
0.448374
0.446916
0.445092
0.442795
0.439871
0.436092
0.431066
0.424889
0.451575
0.452166
0.452627
0.452836
0.452868
0.452775
0.452573
0.452257
0.451817
0.451236
0.450494
0.449559
0.448391
0.446935
0.445114
0.442822
0.439906
0.436138
0.431129
0.424972
0.45161
0.452199
0.452657
0.452864
0.452894
0.452801
0.452598
0.452281
0.45184
0.451258
0.450515
0.449579
0.448411
0.446955
0.445137
0.442851
0.439944
0.436192
0.431207
0.425077
0.451657
0.452243
0.452696
0.452897
0.452922
0.45282
0.452607
0.452278
0.451825
0.451232
0.450478
0.449533
0.448357
0.446897
0.445077
0.442794
0.439898
0.436164
0.431211
0.425116
0.451715
0.452293
0.452737
0.452932
0.45295
0.452839
0.452613
0.45227
0.451802
0.451192
0.450422
0.449463
0.448276
0.446807
0.444984
0.442705
0.43982
0.436111
0.4312
0.425149
0.451779
0.452323
0.452719
0.452853
0.452805
0.452638
0.452367
0.451988
0.451492
0.450862
0.450079
0.449113
0.447925
0.446463
0.444654
0.442396
0.439545
0.435882
0.431041
0.42506
0.451809
0.452368
0.452793
0.452908
0.452817
0.452602
0.452287
0.451872
0.451348
0.450699
0.449904
0.448934
0.447749
0.446298
0.444507
0.442278
0.439465
0.435857
0.431093
0.425189
0.451221
0.451537
0.45183
0.451942
0.451923
0.4518
0.451577
0.451249
0.450808
0.450237
0.449515
0.448614
0.447495
0.446107
0.44438
0.442216
0.439474
0.435944
0.431277
0.425453
0.45492
0.454799
0.454535
0.454313
0.454101
0.453836
0.45349
0.453053
0.452514
0.451854
0.451051
0.450075
0.448888
0.447437
0.445654
0.44344
0.440656
0.437094
0.432406
0.426537
0.455486
0.455525
0.455418
0.455231
0.455002
0.454725
0.454381
0.453957
0.45344
0.452812
0.452051
0.451131
0.450017
0.448663
0.447009
0.444977
0.442458
0.439308
0.435311
0.430444
0.451976
0.452537
0.452966
0.453089
0.453012
0.452816
0.452527
0.452144
0.451661
0.451063
0.450332
0.449441
0.448357
0.447035
0.445414
0.443415
0.44093
0.437813
0.433845
0.429034
0.453427
0.453283
0.45336
0.453281
0.453038
0.452708
0.452315
0.451855
0.451311
0.450664
0.449891
0.448965
0.447847
0.446492
0.444838
0.442804
0.440278
0.43711
0.433077
0.428217
0.453468
0.453425
0.453444
0.453332
0.453077
0.452733
0.452323
0.451844
0.451281
0.450615
0.449822
0.448874
0.447732
0.446349
0.444663
0.442589
0.440015
0.436788
0.432675
0.427738
0.45333
0.453475
0.453612
0.453581
0.453395
0.4531
0.452718
0.452249
0.451685
0.451008
0.450198
0.449226
0.448055
0.446638
0.444912
0.442791
0.440161
0.436865
0.432666
0.427643
0.453242
0.453439
0.453616
0.453605
0.453439
0.453169
0.452813
0.45237
0.451827
0.451169
0.450373
0.44941
0.448244
0.446825
0.44509
0.442952
0.440295
0.436959
0.432703
0.427622
0.45318
0.453391
0.453585
0.453586
0.453432
0.453178
0.452842
0.452419
0.451897
0.451257
0.450477
0.449529
0.448373
0.44696
0.445226
0.443084
0.440413
0.437055
0.432762
0.427642
0.453137
0.453351
0.453554
0.453561
0.45341
0.453159
0.452828
0.452411
0.451895
0.451263
0.45049
0.449548
0.448398
0.44699
0.445258
0.443113
0.440437
0.437066
0.43275
0.427606
0.453109
0.453326
0.453533
0.453543
0.453393
0.453142
0.452811
0.452396
0.451883
0.451253
0.450484
0.449545
0.448397
0.446991
0.44526
0.443114
0.440433
0.437053
0.432724
0.427565
0.453096
0.453313
0.453522
0.453534
0.453383
0.453132
0.452801
0.452387
0.451874
0.451244
0.450475
0.449536
0.448389
0.446983
0.445251
0.443103
0.44042
0.437036
0.432699
0.427533
0.453096
0.453313
0.453522
0.453534
0.453383
0.453132
0.452801
0.452387
0.451874
0.451244
0.450475
0.449536
0.448389
0.446983
0.445251
0.443103
0.44042
0.437036
0.432699
0.427533
0.453109
0.453325
0.453533
0.453543
0.453393
0.453142
0.452811
0.452396
0.451883
0.451253
0.450484
0.449545
0.448397
0.446991
0.44526
0.443114
0.440433
0.437053
0.432724
0.427565
0.453137
0.453351
0.453554
0.453561
0.45341
0.453159
0.452827
0.452411
0.451895
0.451262
0.45049
0.449548
0.448398
0.44699
0.445258
0.443113
0.440437
0.437065
0.43275
0.427606
0.45318
0.453391
0.453585
0.453586
0.453432
0.453178
0.452842
0.452419
0.451897
0.451257
0.450477
0.449528
0.448373
0.44696
0.445226
0.443083
0.440413
0.437055
0.432762
0.427641
0.453242
0.453439
0.453616
0.453605
0.453439
0.453169
0.452813
0.45237
0.451827
0.451169
0.450373
0.44941
0.448244
0.446825
0.44509
0.442952
0.440295
0.436959
0.432703
0.427621
0.45333
0.453475
0.453612
0.453581
0.453395
0.453099
0.452717
0.452249
0.451685
0.451008
0.450198
0.449226
0.448055
0.446638
0.444912
0.442791
0.44016
0.436865
0.432666
0.427643
0.453468
0.453425
0.453444
0.453332
0.453077
0.452733
0.452323
0.451844
0.451281
0.450615
0.449822
0.448873
0.447732
0.446349
0.444663
0.442589
0.440015
0.436787
0.432675
0.427737
0.453427
0.453283
0.45336
0.453281
0.453038
0.452707
0.452315
0.451855
0.45131
0.450664
0.449891
0.448964
0.447847
0.446492
0.444838
0.442803
0.440277
0.43711
0.433077
0.428216
0.451976
0.452537
0.452966
0.453089
0.453012
0.452816
0.452527
0.452144
0.451661
0.451063
0.450332
0.449441
0.448357
0.447034
0.445413
0.443415
0.44093
0.437812
0.433844
0.429033
0.455486
0.455525
0.455418
0.455231
0.455002
0.454724
0.454381
0.453957
0.45344
0.452812
0.452051
0.451131
0.450017
0.448662
0.447009
0.444976
0.442458
0.439307
0.43531
0.430443
0.455719
0.455623
0.455434
0.455235
0.455029
0.454796
0.454512
0.454158
0.453719
0.45318
0.452519
0.451715
0.450737
0.449548
0.4481
0.446333
0.444173
0.441526
0.438274
0.434416
0.452175
0.45272
0.453126
0.453279
0.453261
0.453136
0.45292
0.452612
0.452206
0.451689
0.451047
0.450258
0.449294
0.44812
0.446688
0.444941
0.442803
0.44018
0.436955
0.433144
0.453712
0.45367
0.453696
0.453597
0.453364
0.453047
0.452673
0.45224
0.451733
0.451136
0.45043
0.449587
0.448579
0.447367
0.445902
0.444123
0.441952
0.439293
0.436022
0.432179
0.454351
0.453731
0.453389
0.453155
0.452888
0.452568
0.4522
0.451775
0.451276
0.450686
0.449981
0.449137
0.448123
0.4469
0.445417
0.443613
0.441409
0.438705
0.435375
0.431474
0.45424
0.453915
0.453683
0.453497
0.453259
0.452946
0.452563
0.452111
0.451578
0.450949
0.450204
0.449318
0.44826
0.44699
0.445458
0.4436
0.441335
0.438562
0.435149
0.431165
0.454082
0.453935
0.453804
0.453658
0.453446
0.453158
0.452795
0.452355
0.451828
0.4512
0.450451
0.449555
0.448482
0.447191
0.445632
0.443739
0.441431
0.438604
0.435122
0.431069
0.45399
0.453894
0.453807
0.453683
0.453493
0.453231
0.452898
0.452487
0.451985
0.451377
0.450643
0.449758
0.448689
0.447398
0.445831
0.443924
0.441592
0.438732
0.435202
0.431102
0.453932
0.453849
0.453782
0.45367
0.453486
0.453234
0.452913
0.452515
0.452028
0.451434
0.450713
0.449839
0.44878
0.447495
0.445931
0.444021
0.441682
0.438806
0.435251
0.431124
0.453897
0.453817
0.45376
0.453655
0.453473
0.453221
0.452904
0.452512
0.452031
0.451444
0.450731
0.449864
0.448811
0.447532
0.445972
0.444063
0.441722
0.438839
0.435272
0.431132
0.45388
0.453802
0.453749
0.453646
0.453464
0.453213
0.452896
0.452505
0.452026
0.451441
0.45073
0.449866
0.448816
0.447538
0.44598
0.444072
0.44173
0.438845
0.435272
0.431127
0.45388
0.453802
0.453749
0.453646
0.453464
0.453213
0.452896
0.452505
0.452026
0.451441
0.45073
0.449866
0.448816
0.447538
0.44598
0.444072
0.44173
0.438845
0.435272
0.431127
0.453897
0.453817
0.45376
0.453655
0.453473
0.453221
0.452904
0.452512
0.452031
0.451444
0.450731
0.449864
0.448811
0.447532
0.445971
0.444063
0.441721
0.438839
0.435272
0.431132
0.453932
0.453848
0.453782
0.45367
0.453486
0.453234
0.452913
0.452515
0.452028
0.451434
0.450713
0.449839
0.44878
0.447495
0.445931
0.444021
0.441681
0.438806
0.435251
0.431124
0.45399
0.453894
0.453807
0.453683
0.453493
0.453231
0.452898
0.452487
0.451985
0.451377
0.450643
0.449758
0.448689
0.447398
0.445831
0.443924
0.441592
0.438732
0.435202
0.431101
0.454082
0.453935
0.453804
0.453657
0.453446
0.453158
0.452795
0.452355
0.451828
0.4512
0.450451
0.449555
0.448482
0.447191
0.445632
0.443739
0.441431
0.438604
0.435121
0.431068
0.45424
0.453915
0.453683
0.453497
0.453259
0.452946
0.452563
0.452111
0.451578
0.450949
0.450204
0.449318
0.44826
0.44699
0.445458
0.4436
0.441335
0.438562
0.435148
0.431165
0.454351
0.453731
0.453389
0.453154
0.452888
0.452568
0.4522
0.451775
0.451276
0.450686
0.449981
0.449137
0.448123
0.446899
0.445417
0.443613
0.441408
0.438705
0.435374
0.431473
0.453712
0.45367
0.453696
0.453597
0.453364
0.453047
0.452673
0.45224
0.451733
0.451136
0.450429
0.449587
0.448579
0.447367
0.445902
0.444123
0.441951
0.439292
0.436021
0.432178
0.452175
0.45272
0.453126
0.453279
0.453261
0.453135
0.452919
0.452612
0.452205
0.451689
0.451047
0.450258
0.449294
0.448119
0.446688
0.444941
0.442803
0.44018
0.436954
0.433143
0.455719
0.455623
0.455434
0.455235
0.455029
0.454796
0.454512
0.454158
0.453719
0.45318
0.452519
0.451715
0.450737
0.449547
0.4481
0.446333
0.444172
0.441525
0.438273
0.434415
0.455956
0.455853
0.455691
0.45555
0.455409
0.455235
0.455009
0.454717
0.454347
0.453887
0.453319
0.452626
0.451784
0.450764
0.449531
0.448042
0.446251
0.444102
0.44154
0.438573
0.452391
0.452972
0.453432
0.453658
0.453723
0.453679
0.453541
0.453311
0.452984
0.452555
0.45201
0.451334
0.450507
0.4495
0.448281
0.446809
0.445036
0.442907
0.440366
0.43743
0.453865
0.45401
0.45416
0.454155
0.454009
0.453768
0.453458
0.453081
0.452633
0.4521
0.451469
0.450722
0.449834
0.448776
0.447513
0.446003
0.444195
0.442031
0.439451
0.436484
0.454545
0.45422
0.453994
0.453822
0.453607
0.453325
0.452982
0.452582
0.452114
0.451566
0.450921
0.450159
0.449257
0.448184
0.446904
0.445372
0.443537
0.441339
0.438715
0.435703
0.454898
0.454323
0.453962
0.453757
0.453554
0.453288
0.452953
0.45255
0.452072
0.451509
0.450845
0.45006
0.44913
0.448026
0.44671
0.445138
0.443257
0.441005
0.438316
0.435236
0.454753
0.454448
0.454187
0.453998
0.45379
0.453517
0.45317
0.452752
0.452258
0.451677
0.450993
0.450187
0.449233
0.448101
0.446753
0.445144
0.443218
0.440914
0.43816
0.435014
0.454598
0.454449
0.454287
0.454138
0.453956
0.453708
0.453385
0.452985
0.452502
0.451926
0.451243
0.450431
0.449467
0.44832
0.446951
0.445313
0.443353
0.441005
0.438198
0.434996
0.454513
0.454408
0.45429
0.454163
0.453996
0.453766
0.453464
0.453085
0.452621
0.452061
0.45139
0.450587
0.449628
0.448482
0.447109
0.445463
0.443486
0.441115
0.438275
0.435039
0.454464
0.454372
0.454272
0.454157
0.453995
0.453771
0.453479
0.453112
0.452661
0.452113
0.451454
0.450662
0.449712
0.448573
0.447204
0.445558
0.443577
0.441196
0.43834
0.435087
0.454442
0.454353
0.454261
0.45415
0.45399
0.453767
0.453477
0.453114
0.452668
0.452126
0.451472
0.450685
0.449741
0.448606
0.44724
0.445596
0.443615
0.441232
0.43837
0.435111
0.454442
0.454353
0.454261
0.45415
0.45399
0.453767
0.453477
0.453114
0.452668
0.452126
0.451472
0.450685
0.449741
0.448606
0.44724
0.445596
0.443615
0.441232
0.43837
0.435111
0.454464
0.454372
0.454272
0.454157
0.453995
0.453771
0.453479
0.453112
0.452661
0.452113
0.451454
0.450662
0.449712
0.448573
0.447204
0.445557
0.443577
0.441196
0.43834
0.435087
0.454513
0.454408
0.45429
0.454163
0.453996
0.453766
0.453464
0.453084
0.452621
0.452061
0.451389
0.450587
0.449628
0.448482
0.447109
0.445463
0.443486
0.441115
0.438274
0.435039
0.454598
0.454449
0.454287
0.454138
0.453956
0.453708
0.453385
0.452985
0.452502
0.451926
0.451242
0.450431
0.449467
0.448319
0.44695
0.445313
0.443352
0.441005
0.438197
0.434996
0.454752
0.454448
0.454187
0.453998
0.45379
0.453517
0.45317
0.452752
0.452258
0.451677
0.450993
0.450187
0.449233
0.448101
0.446753
0.445144
0.443217
0.440913
0.43816
0.435014
0.454898
0.454323
0.453962
0.453757
0.453554
0.453288
0.452953
0.45255
0.452072
0.451509
0.450845
0.45006
0.44913
0.448026
0.44671
0.445138
0.443256
0.441005
0.438316
0.435235
0.454545
0.454219
0.453994
0.453822
0.453607
0.453324
0.452982
0.452581
0.452114
0.451565
0.450921
0.450159
0.449257
0.448184
0.446903
0.445372
0.443536
0.441339
0.438715
0.435702
0.453865
0.45401
0.45416
0.454155
0.454009
0.453768
0.453458
0.453081
0.452632
0.4521
0.451469
0.450721
0.449833
0.448776
0.447513
0.446003
0.444194
0.44203
0.43945
0.436483
0.452391
0.452972
0.453431
0.453658
0.453723
0.453679
0.453541
0.45331
0.452984
0.452554
0.45201
0.451334
0.450506
0.4495
0.448281
0.446809
0.445036
0.442907
0.440365
0.437429
0.455956
0.455853
0.455691
0.45555
0.455409
0.455235
0.455009
0.454717
0.454347
0.453886
0.453319
0.452626
0.451783
0.450763
0.44953
0.448042
0.44625
0.444101
0.441539
0.438572
0.456234
0.456132
0.455977
0.455849
0.455727
0.455579
0.455388
0.455144
0.454838
0.454457
0.453991
0.453422
0.452734
0.451905
0.450912
0.449726
0.448319
0.446663
0.444738
0.44256
0.452657
0.453249
0.453726
0.453973
0.454067
0.454063
0.453976
0.45381
0.453562
0.453227
0.452795
0.452254
0.451588
0.450779
0.449802
0.448633
0.447241
0.445601
0.443692
0.44153
0.454109
0.454308
0.454504
0.454534
0.45443
0.454245
0.454
0.453699
0.453336
0.452902
0.452385
0.451772
0.451044
0.45018
0.449156
0.447944
0.446514
0.444837
0.442888
0.440688
0.454731
0.454583
0.454464
0.454346
0.45418
0.453955
0.453674
0.45334
0.452947
0.452485
0.451942
0.451303
0.45055
0.449662
0.448612
0.447373
0.445913
0.444201
0.44221
0.439964
0.455109
0.454804
0.454551
0.454377
0.454196
0.453958
0.453658
0.453298
0.452877
0.452385
0.451812
0.451142
0.450357
0.449436
0.448352
0.447076
0.445575
0.443816
0.441771
0.439467
0.455357
0.454857
0.454494
0.454267
0.454067
0.453831
0.453539
0.45319
0.452778
0.452293
0.451723
0.451052
0.450262
0.449329
0.448229
0.446929
0.445398
0.443602
0.441509
0.439152
0.455211
0.454947
0.454682
0.454476
0.454276
0.454036
0.453741
0.453385
0.452965
0.45247
0.451888
0.451203
0.450396
0.449444
0.448319
0.446992
0.445427
0.44359
0.441448
0.439039
0.45507
0.454943
0.454769
0.454601
0.45442
0.454198
0.453918
0.453575
0.453163
0.452671
0.452088
0.451399
0.450585
0.449621
0.448481
0.447134
0.445543
0.443674
0.441492
0.439043
0.454998
0.45491
0.454776
0.454628
0.45446
0.454252
0.45399
0.453666
0.453269
0.452792
0.45222
0.451539
0.450729
0.449767
0.448624
0.447269
0.445666
0.443779
0.441573
0.439097
0.454967
0.454888
0.454769
0.454629
0.454465
0.454263
0.454009
0.453693
0.453306
0.452838
0.452275
0.451601
0.450796
0.449837
0.448696
0.447341
0.445734
0.443841
0.441624
0.439138
0.454967
0.454888
0.454769
0.454629
0.454465
0.454263
0.454009
0.453693
0.453306
0.452838
0.452275
0.451601
0.450796
0.449837
0.448696
0.447341
0.445734
0.443841
0.441624
0.439138
0.454998
0.45491
0.454776
0.454628
0.45446
0.454252
0.45399
0.453666
0.453269
0.452792
0.45222
0.451539
0.450729
0.449767
0.448624
0.447269
0.445666
0.443779
0.441573
0.439097
0.45507
0.454943
0.454769
0.454601
0.45442
0.454198
0.453918
0.453575
0.453162
0.452671
0.452088
0.451399
0.450584
0.449621
0.448481
0.447134
0.445543
0.443674
0.441492
0.439043
0.455211
0.454947
0.454682
0.454475
0.454275
0.454036
0.453741
0.453385
0.452965
0.45247
0.451888
0.451203
0.450396
0.449443
0.448319
0.446992
0.445427
0.443589
0.441447
0.439039
0.455356
0.454857
0.454494
0.454267
0.454067
0.453831
0.453539
0.45319
0.452778
0.452293
0.451723
0.451052
0.450261
0.449329
0.448228
0.446929
0.445398
0.443602
0.441508
0.439151
0.455109
0.454804
0.45455
0.454377
0.454196
0.453958
0.453658
0.453298
0.452877
0.452385
0.451812
0.451142
0.450357
0.449435
0.448351
0.447075
0.445574
0.443816
0.44177
0.439466
0.454731
0.454582
0.454464
0.454346
0.45418
0.453954
0.453674
0.45334
0.452947
0.452485
0.451942
0.451303
0.45055
0.449661
0.448612
0.447373
0.445913
0.4442
0.442209
0.439963
0.454109
0.454308
0.454504
0.454534
0.45443
0.454244
0.454
0.453699
0.453336
0.452902
0.452385
0.451772
0.451043
0.45018
0.449156
0.447944
0.446514
0.444836
0.442887
0.440687
0.452657
0.453249
0.453725
0.453973
0.454067
0.454063
0.453976
0.45381
0.453562
0.453227
0.452794
0.452253
0.451588
0.450778
0.449802
0.448632
0.447241
0.445601
0.443691
0.441529
0.456233
0.456132
0.455977
0.455849
0.455727
0.455578
0.455388
0.455144
0.454838
0.454457
0.45399
0.453422
0.452734
0.451905
0.450911
0.449725
0.448318
0.446662
0.444738
0.442559
0.456553
0.456455
0.456311
0.456204
0.456112
0.456004
0.455864
0.455683
0.455452
0.455164
0.454807
0.454371
0.453844
0.453212
0.45246
0.451571
0.45053
0.449328
0.447964
0.446457
0.452971
0.453568
0.454059
0.454329
0.454456
0.454494
0.454462
0.454363
0.454196
0.453958
0.453641
0.453238
0.452738
0.452129
0.451397
0.450525
0.449501
0.448314
0.446963
0.445466
0.454415
0.454628
0.45485
0.454908
0.454841
0.454706
0.454525
0.4543
0.454025
0.453695
0.453299
0.452829
0.452271
0.45161
0.450832
0.44992
0.448858
0.447634
0.446246
0.444708
0.455014
0.454916
0.45485
0.454771
0.45465
0.454486
0.454279
0.45403
0.453731
0.453376
0.452956
0.45246
0.451876
0.451189
0.450383
0.449442
0.448348
0.44709
0.44566
0.444076
0.45534
0.45519
0.455042
0.454925
0.454795
0.454618
0.454387
0.454104
0.453768
0.453373
0.452913
0.452377
0.451752
0.451025
0.450179
0.449197
0.448061
0.446756
0.445275
0.443634
0.455608
0.455344
0.455087
0.454898
0.454727
0.454526
0.454281
0.453988
0.453646
0.453247
0.452782
0.45224
0.451607
0.45087
0.45001
0.449009
0.447849
0.446514
0.444994
0.443309
0.45581
0.455371
0.455026
0.454795
0.454609
0.454413
0.454181
0.453904
0.453575
0.453187
0.45273
0.452193
0.451561
0.450819
0.449951
0.448936
0.447756
0.446393
0.44484
0.443116
0.455677
0.455446
0.455191
0.45498
0.454791
0.454586
0.454346
0.454059
0.45372
0.453321
0.452853
0.452302
0.451657
0.450899
0.450013
0.448976
0.447771
0.446379
0.44479
0.443029
0.455558
0.455448
0.455274
0.455097
0.454924
0.454733
0.454506
0.454229
0.453896
0.453498
0.453027
0.452471
0.451816
0.451047
0.450145
0.44909
0.447862
0.446443
0.444823
0.443028
0.45551
0.455433
0.455289
0.455126
0.454963
0.454785
0.454571
0.454307
0.453984
0.453594
0.453128
0.452574
0.451919
0.451147
0.450238
0.449175
0.447935
0.446502
0.444864
0.443051
0.45551
0.455433
0.455289
0.455126
0.454963
0.454785
0.45457
0.454307
0.453984
0.453594
0.453128
0.452574
0.451919
0.451147
0.450238
0.449175
0.447935
0.446502
0.444864
0.443051
0.455558
0.455448
0.455274
0.455097
0.454924
0.454733
0.454506
0.454229
0.453896
0.453498
0.453027
0.452471
0.451816
0.451047
0.450145
0.44909
0.447862
0.446443
0.444823
0.443028
0.455677
0.455446
0.455191
0.45498
0.454791
0.454586
0.454346
0.454059
0.45372
0.453321
0.452853
0.452302
0.451656
0.450899
0.450012
0.448976
0.447771
0.446379
0.44479
0.443029
0.45581
0.455371
0.455026
0.454795
0.454609
0.454413
0.454181
0.453904
0.453575
0.453187
0.45273
0.452193
0.451561
0.450819
0.449951
0.448936
0.447755
0.446393
0.44484
0.443116
0.455608
0.455344
0.455087
0.454898
0.454727
0.454526
0.454281
0.453988
0.453646
0.453247
0.452782
0.45224
0.451607
0.45087
0.45001
0.449009
0.447849
0.446513
0.444994
0.443309
0.45534
0.45519
0.455042
0.454925
0.454795
0.454618
0.454387
0.454104
0.453768
0.453373
0.452913
0.452376
0.451752
0.451025
0.450179
0.449197
0.448061
0.446755
0.445274
0.443634
0.455014
0.454916
0.45485
0.454771
0.45465
0.454486
0.454279
0.45403
0.453731
0.453376
0.452956
0.45246
0.451876
0.451189
0.450383
0.449442
0.448348
0.447089
0.44566
0.444076
0.454414
0.454628
0.45485
0.454908
0.454841
0.454706
0.454525
0.4543
0.454025
0.453695
0.453299
0.452829
0.45227
0.45161
0.450832
0.44992
0.448858
0.447634
0.446245
0.444707
0.452971
0.453568
0.454059
0.454329
0.454455
0.454494
0.454462
0.454363
0.454196
0.453958
0.453641
0.453238
0.452738
0.452129
0.451396
0.450525
0.449501
0.448313
0.446963
0.445465
0.456553
0.456455
0.456311
0.456204
0.456112
0.456004
0.455864
0.455683
0.455452
0.455163
0.454807
0.454371
0.453844
0.453212
0.452459
0.45157
0.45053
0.449327
0.447964
0.446456
0.45691
0.456815
0.456683
0.456596
0.456533
0.456463
0.456371
0.456249
0.456092
0.455894
0.455647
0.455345
0.454981
0.454546
0.454032
0.453432
0.45274
0.451956
0.451089
0.45016
0.453323
0.453925
0.454429
0.45472
0.454876
0.454952
0.454969
0.454932
0.454841
0.454695
0.454492
0.454225
0.453891
0.453481
0.452988
0.452406
0.451729
0.450958
0.450102
0.449177
0.454764
0.454984
0.455224
0.455306
0.455268
0.455173
0.455044
0.454885
0.454692
0.454459
0.454182
0.453852
0.453464
0.453007
0.452472
0.451852
0.45114
0.450335
0.449443
0.448479
0.455355
0.455272
0.455234
0.455184
0.455097
0.454978
0.454832
0.454656
0.454445
0.454195
0.453899
0.453549
0.453139
0.452658
0.452099
0.451452
0.45071
0.449871
0.448941
0.447933
0.455661
0.455556
0.455459
0.455382
0.455294
0.455171
0.455009
0.454808
0.454565
0.454279
0.453944
0.453554
0.453103
0.452582
0.451982
0.451292
0.450507
0.449622
0.448642
0.447577
0.455883
0.455756
0.455597
0.455464
0.455339
0.455194
0.455015
0.454798
0.454541
0.454242
0.453895
0.453493
0.453027
0.45249
0.451871
0.45116
0.450349
0.449434
0.448417
0.44731
0.456105
0.455874
0.455627
0.455435
0.455276
0.455113
0.454926
0.454706
0.45445
0.454152
0.453805
0.453402
0.452935
0.452394
0.451767
0.451046
0.45022
0.449285
0.448242
0.447103
0.456289
0.455896
0.455569
0.455339
0.455163
0.454998
0.454817
0.454607
0.454359
0.454067
0.453725
0.453325
0.452858
0.452314
0.451682
0.450951
0.450112
0.449159
0.448094
0.446929
0.456182
0.455973
0.455722
0.455508
0.455327
0.455153
0.454961
0.454738
0.454477
0.454171
0.453813
0.453397
0.452913
0.452351
0.451699
0.450948
0.450086
0.449108
0.448016
0.446823
0.456098
0.455991
0.455803
0.455612
0.455443
0.455276
0.455089
0.454867
0.454602
0.454289
0.453922
0.453494
0.452997
0.45242
0.451752
0.450983
0.450104
0.449107
0.447994
0.44678
0.456098
0.455991
0.455802
0.455612
0.455443
0.455276
0.455089
0.454867
0.454602
0.454289
0.453922
0.453494
0.452997
0.45242
0.451752
0.450983
0.450104
0.449107
0.447994
0.44678
0.456182
0.455973
0.455722
0.455508
0.455327
0.455153
0.454961
0.454738
0.454477
0.454171
0.453813
0.453397
0.452913
0.452351
0.451699
0.450948
0.450086
0.449108
0.448016
0.446822
0.456289
0.455896
0.455569
0.455339
0.455163
0.454998
0.454817
0.454607
0.454359
0.454067
0.453725
0.453325
0.452858
0.452314
0.451682
0.450951
0.450112
0.449159
0.448093
0.446928
0.456105
0.455874
0.455627
0.455435
0.455276
0.455113
0.454926
0.454706
0.45445
0.454152
0.453805
0.453402
0.452935
0.452393
0.451767
0.451046
0.45022
0.449285
0.448242
0.447103
0.455883
0.455755
0.455597
0.455464
0.455339
0.455194
0.455015
0.454798
0.454541
0.454242
0.453895
0.453493
0.453027
0.45249
0.45187
0.45116
0.450349
0.449434
0.448417
0.44731
0.455661
0.455556
0.455459
0.455382
0.455294
0.455171
0.455009
0.454807
0.454565
0.454278
0.453944
0.453554
0.453103
0.452582
0.451981
0.451292
0.450507
0.449622
0.448641
0.447576
0.455355
0.455272
0.455234
0.455184
0.455097
0.454978
0.454832
0.454656
0.454445
0.454195
0.453899
0.453549
0.453138
0.452658
0.452099
0.451452
0.45071
0.449871
0.448941
0.447932
0.454764
0.454984
0.455224
0.455306
0.455268
0.455173
0.455044
0.454885
0.454691
0.454459
0.454181
0.453852
0.453463
0.453006
0.452472
0.451852
0.45114
0.450334
0.449442
0.448478
0.453323
0.453925
0.454429
0.45472
0.454876
0.454952
0.454969
0.454932
0.454841
0.454695
0.454491
0.454225
0.45389
0.453481
0.452988
0.452406
0.451729
0.450958
0.450101
0.449176
0.45691
0.456815
0.456683
0.456596
0.456533
0.456463
0.456371
0.456249
0.456092
0.455893
0.455647
0.455345
0.454981
0.454546
0.454032
0.453431
0.452739
0.451955
0.451089
0.450159
0.457295
0.457204
0.457083
0.457017
0.456984
0.456953
0.456911
0.456853
0.456773
0.456669
0.456537
0.456372
0.456172
0.455932
0.45565
0.455325
0.454956
0.45455
0.454119
0.453683
0.453705
0.45431
0.454827
0.455139
0.455324
0.455439
0.455507
0.455532
0.455519
0.455468
0.455378
0.455249
0.455078
0.454863
0.454602
0.454293
0.453939
0.453543
0.453119
0.452684
0.455146
0.45537
0.455624
0.455728
0.45572
0.455663
0.455585
0.45549
0.455375
0.455239
0.455078
0.454888
0.454665
0.454405
0.454105
0.453761
0.453373
0.452945
0.452488
0.452016
0.455734
0.455657
0.455637
0.455613
0.455556
0.455477
0.455383
0.455275
0.455148
0.454998
0.454822
0.454615
0.454374
0.454095
0.453773
0.453405
0.452991
0.452533
0.452041
0.451528
0.456033
0.455942
0.455873
0.455825
0.45577
0.455693
0.45559
0.455462
0.455308
0.455128
0.454918
0.454675
0.454397
0.454079
0.453718
0.45331
0.452854
0.452352