/*--------------------------------*- C++ -*----------------------------------*\
  =========                 |
  \\      /  F ield         | OpenFOAM: The Open Source CFD Toolbox
   \\    /   O peration     | Website:  https://openfoam.org
    \\  /    A nd           | Version:  10
     \\/     M anipulation  |
\*---------------------------------------------------------------------------*/
FoamFile
{
    format      ascii;
    class       volScalarField;
    location    "300";
    object      T;
}
// * * * * * * * * * * * * * * * * * * * * * * * * * * * * * * * * * * * * * //

dimensions      [0 0 0 1 0 0 0];

internalField   nonuniform List<scalar> 
112000
(
1499.64
1498.73
1498.23
1498.07
1497.99
1497.87
1497.65
1497.32
1496.84
1496.18
1495.29
1494.12
1492.6
1490.64
1488.09
1484.75
1480.3
1474.16
1465.36
1449.16
1499.52
1499.03
1498.6
1498.27
1497.96
1497.59
1497.13
1496.56
1495.86
1494.99
1493.91
1492.57
1490.91
1488.82
1486.17
1482.77
1478.28
1472.15
1463.43
1447.28
1499.59
1499.05
1498.48
1497.92
1497.36
1496.77
1496.12
1495.4
1494.56
1493.57
1492.39
1490.98
1489.25
1487.11
1484.42
1480.99
1476.49
1470.37
1461.69
1445.53
1499.49
1498.8
1498.13
1497.51
1496.91
1496.28
1495.6
1494.83
1493.95
1492.92
1491.69
1490.22
1488.43
1486.24
1483.49
1480
1475.44
1469.24
1460.47
1444.11
1499.49
1498.8
1498.15
1497.54
1496.93
1496.27
1495.54
1494.71
1493.76
1492.65
1491.35
1489.8
1487.93
1485.64
1482.81
1479.22
1474.55
1468.23
1459.33
1442.74
1499.49
1498.79
1498.14
1497.52
1496.9
1496.23
1495.48
1494.63
1493.66
1492.53
1491.2
1489.61
1487.7
1485.37
1482.48
1478.83
1474.07
1467.65
1458.6
1441.78
1499.49
1498.79
1498.14
1497.53
1496.91
1496.24
1495.49
1494.64
1493.66
1492.51
1491.16
1489.55
1487.61
1485.24
1482.31
1478.59
1473.77
1467.25
1458.1
1441.09
1499.49
1498.8
1498.15
1497.54
1496.92
1496.25
1495.5
1494.64
1493.65
1492.49
1491.13
1489.51
1487.56
1485.17
1482.21
1478.46
1473.59
1467.01
1457.78
1440.64
1499.49
1498.8
1498.15
1497.54
1496.93
1496.25
1495.5
1494.64
1493.65
1492.49
1491.13
1489.5
1487.53
1485.13
1482.15
1478.38
1473.49
1466.87
1457.58
1440.36
1499.49
1498.8
1498.15
1497.55
1496.93
1496.26
1495.5
1494.64
1493.65
1492.49
1491.12
1489.49
1487.52
1485.11
1482.13
1478.35
1473.44
1466.81
1457.49
1440.22
1499.49
1498.8
1498.15
1497.55
1496.93
1496.26
1495.5
1494.64
1493.65
1492.49
1491.12
1489.49
1487.52
1485.11
1482.13
1478.35
1473.44
1466.81
1457.49
1440.22
1499.49
1498.8
1498.15
1497.54
1496.93
1496.25
1495.5
1494.64
1493.65
1492.49
1491.13
1489.5
1487.53
1485.13
1482.15
1478.38
1473.49
1466.87
1457.58
1440.36
1499.49
1498.8
1498.15
1497.54
1496.92
1496.25
1495.5
1494.64
1493.65
1492.49
1491.13
1489.51
1487.56
1485.17
1482.21
1478.46
1473.59
1467.01
1457.78
1440.64
1499.49
1498.79
1498.14
1497.53
1496.91
1496.24
1495.49
1494.64
1493.66
1492.51
1491.16
1489.55
1487.61
1485.24
1482.31
1478.59
1473.77
1467.25
1458.1
1441.09
1499.49
1498.79
1498.14
1497.52
1496.9
1496.23
1495.48
1494.63
1493.66
1492.53
1491.2
1489.61
1487.7
1485.37
1482.48
1478.83
1474.07
1467.65
1458.6
1441.78
1499.49
1498.8
1498.15
1497.54
1496.93
1496.27
1495.54
1494.71
1493.76
1492.65
1491.35
1489.8
1487.93
1485.64
1482.81
1479.22
1474.55
1468.23
1459.33
1442.74
1499.49
1498.8
1498.13
1497.51
1496.91
1496.28
1495.6
1494.83
1493.95
1492.91
1491.69
1490.22
1488.43
1486.24
1483.49
1480
1475.44
1469.24
1460.47
1444.11
1499.59
1499.05
1498.48
1497.92
1497.36
1496.77
1496.12
1495.4
1494.56
1493.57
1492.39
1490.98
1489.25
1487.11
1484.42
1480.99
1476.49
1470.37
1461.69
1445.53
1499.52
1499.03
1498.6
1498.27
1497.96
1497.59
1497.13
1496.56
1495.85
1494.99
1493.91
1492.57
1490.91
1488.82
1486.17
1482.77
1478.28
1472.15
1463.43
1447.28
1499.64
1498.73
1498.23
1498.07
1497.99
1497.87
1497.65
1497.32
1496.84
1496.18
1495.29
1494.12
1492.6
1490.64
1488.09
1484.75
1480.3
1474.16
1465.36
1449.16
1499.52
1499.02
1498.58
1498.24
1497.9
1497.51
1497.02
1496.41
1495.67
1494.76
1493.64
1492.25
1490.54
1488.42
1485.76
1482.39
1478.05
1472.38
1464.87
1453.84
1501.06
1502.09
1502.66
1502.83
1502.73
1502.41
1501.91
1501.24
1500.39
1499.35
1498.08
1496.54
1494.67
1492.39
1489.56
1486.03
1481.54
1475.7
1468.01
1456.81
1500.44
1501.09
1501.45
1501.51
1501.38
1501.09
1500.67
1500.11
1499.37
1498.45
1497.3
1495.89
1494.14
1491.97
1489.26
1485.84
1481.46
1475.72
1468.14
1457.05
1500.24
1500.61
1500.71
1500.59
1500.32
1499.94
1499.46
1498.85
1498.1
1497.17
1496.03
1494.64
1492.92
1490.78
1488.11
1484.73
1480.39
1474.7
1467.15
1456.07
1500.23
1500.54
1500.56
1500.34
1499.96
1499.46
1498.86
1498.14
1497.28
1496.26
1495.04
1493.57
1491.79
1489.6
1486.88
1483.46
1479.07
1473.33
1465.73
1454.55
1500.23
1500.54
1500.54
1500.29
1499.86
1499.31
1498.64
1497.85
1496.92
1495.83
1494.53
1492.99
1491.13
1488.87
1486.07
1482.56
1478.08
1472.23
1464.52
1453.16
1500.23
1500.54
1500.55
1500.29
1499.85
1499.28
1498.59
1497.77
1496.8
1495.67
1494.33
1492.73
1490.81
1488.48
1485.61
1482.02
1477.45
1471.49
1463.65
1452.11
1500.23
1500.55
1500.56
1500.3
1499.86
1499.28
1498.58
1497.75
1496.77
1495.61
1494.25
1492.62
1490.67
1488.3
1485.38
1481.74
1477.09
1471.06
1463.11
1451.43
1500.23
1500.55
1500.56
1500.3
1499.86
1499.29
1498.58
1497.75
1496.76
1495.6
1494.22
1492.59
1490.62
1488.22
1485.28
1481.6
1476.91
1470.82
1462.81
1451.03
1500.23
1500.55
1500.57
1500.31
1499.87
1499.29
1498.59
1497.75
1496.76
1495.6
1494.22
1492.57
1490.6
1488.19
1485.24
1481.54
1476.84
1470.72
1462.68
1450.85
1500.23
1500.55
1500.57
1500.31
1499.87
1499.29
1498.59
1497.75
1496.76
1495.6
1494.22
1492.57
1490.6
1488.19
1485.24
1481.54
1476.84
1470.72
1462.68
1450.85
1500.23
1500.55
1500.56
1500.3
1499.86
1499.29
1498.58
1497.75
1496.76
1495.6
1494.22
1492.59
1490.62
1488.22
1485.28
1481.6
1476.91
1470.82
1462.81
1451.03
1500.23
1500.55
1500.56
1500.3
1499.86
1499.28
1498.58
1497.75
1496.77
1495.61
1494.25
1492.62
1490.67
1488.3
1485.38
1481.74
1477.09
1471.06
1463.11
1451.43
1500.23
1500.54
1500.55
1500.29
1499.85
1499.28
1498.59
1497.77
1496.8
1495.67
1494.33
1492.73
1490.81
1488.48
1485.61
1482.02
1477.45
1471.49
1463.65
1452.11
1500.23
1500.54
1500.54
1500.29
1499.86
1499.31
1498.64
1497.85
1496.92
1495.83
1494.53
1492.99
1491.13
1488.87
1486.07
1482.56
1478.08
1472.23
1464.52
1453.16
1500.23
1500.54
1500.56
1500.34
1499.96
1499.46
1498.86
1498.14
1497.28
1496.26
1495.04
1493.57
1491.79
1489.6
1486.88
1483.46
1479.07
1473.33
1465.73
1454.55
1500.24
1500.61
1500.71
1500.59
1500.32
1499.94
1499.46
1498.85
1498.1
1497.17
1496.03
1494.64
1492.92
1490.78
1488.11
1484.73
1480.39
1474.7
1467.15
1456.06
1500.44
1501.09
1501.45
1501.51
1501.38
1501.09
1500.67
1500.1
1499.37
1498.45
1497.3
1495.89
1494.14
1491.97
1489.26
1485.84
1481.46
1475.72
1468.14
1457.04
1501.06
1502.09
1502.66
1502.83
1502.73
1502.41
1501.91
1501.24
1500.39
1499.35
1498.08
1496.54
1494.67
1492.38
1489.56
1486.03
1481.54
1475.7
1468.01
1456.81
1499.52
1499.02
1498.58
1498.24
1497.9
1497.51
1497.02
1496.41
1495.67
1494.76
1493.64
1492.25
1490.54
1488.42
1485.76
1482.39
1478.05
1472.38
1464.87
1453.84
1499.58
1499.04
1498.46
1497.89
1497.32
1496.72
1496.07
1495.33
1494.49
1493.51
1492.35
1490.97
1489.31
1487.28
1484.8
1481.73
1477.89
1473.06
1466.98
1458.9
1500.44
1501.08
1501.43
1501.49
1501.35
1501.06
1500.64
1500.07
1499.34
1498.43
1497.3
1495.91
1494.21
1492.12
1489.55
1486.36
1482.38
1477.36
1471.04
1462.68
1501.11
1502.12
1502.77
1503.01
1502.96
1502.72
1502.32
1501.77
1501.05
1500.15
1499.02
1497.64
1495.95
1493.87
1491.3
1488.11
1484.13
1479.1
1472.76
1464.36
1500.38
1500.91
1501.36
1501.61
1501.67
1501.58
1501.33
1500.92
1500.34
1499.55
1498.54
1497.26
1495.65
1493.65
1491.16
1488.04
1484.11
1479.13
1472.83
1464.44
1500.29
1500.63
1500.84
1500.87
1500.76
1500.54
1500.2
1499.74
1499.12
1498.33
1497.32
1496.05
1494.48
1492.51
1490.05
1486.96
1483.06
1478.11
1471.83
1463.43
1500.29
1500.6
1500.73
1500.66
1500.43
1500.09
1499.64
1499.08
1498.37
1497.49
1496.41
1495.08
1493.44
1491.42
1488.92
1485.79
1481.84
1476.83
1470.5
1462
1500.29
1500.62
1500.74
1500.63
1500.36
1499.97
1499.46
1498.83
1498.05
1497.1
1495.94
1494.54
1492.83
1490.73
1488.14
1484.93
1480.9
1475.79
1469.35
1460.71
1500.3
1500.63
1500.75
1500.64
1500.35
1499.94
1499.41
1498.75
1497.94
1496.95
1495.75
1494.29
1492.53
1490.37
1487.72
1484.43
1480.31
1475.12
1468.56
1459.79
1500.3
1500.64
1500.76
1500.65
1500.36
1499.95
1499.41
1498.74
1497.91
1496.9
1495.68
1494.2
1492.4
1490.21
1487.51
1484.18
1480.01
1474.74
1468.11
1459.23
1500.3
1500.64
1500.77
1500.65
1500.37
1499.95
1499.41
1498.73
1497.9
1496.89
1495.66
1494.17
1492.36
1490.15
1487.44
1484.08
1479.88
1474.58
1467.91
1458.98
1500.3
1500.64
1500.77
1500.65
1500.37
1499.95
1499.41
1498.73
1497.9
1496.89
1495.66
1494.17
1492.36
1490.15
1487.44
1484.08
1479.88
1474.58
1467.91
1458.98
1500.3
1500.64
1500.76
1500.65
1500.36
1499.95
1499.41
1498.74
1497.91
1496.9
1495.68
1494.2
1492.4
1490.21
1487.51
1484.18
1480.01
1474.74
1468.11
1459.23
1500.3
1500.63
1500.75
1500.64
1500.35
1499.94
1499.41
1498.75
1497.94
1496.95
1495.75
1494.29
1492.53
1490.37
1487.72
1484.43
1480.31
1475.12
1468.56
1459.78
1500.29
1500.62
1500.74
1500.63
1500.36
1499.97
1499.46
1498.83
1498.05
1497.1
1495.94
1494.54
1492.82
1490.73
1488.14
1484.93
1480.9
1475.79
1469.35
1460.71
1500.29
1500.6
1500.73
1500.66
1500.43
1500.09
1499.64
1499.08
1498.37
1497.49
1496.41
1495.08
1493.44
1491.42
1488.92
1485.79
1481.84
1476.83
1470.49
1462
1500.29
1500.63
1500.84
1500.87
1500.76
1500.54
1500.2
1499.74
1499.12
1498.33
1497.32
1496.05
1494.48
1492.51
1490.05
1486.96
1483.06
1478.11
1471.83
1463.43
1500.38
1500.91
1501.36
1501.61
1501.67
1501.58
1501.33
1500.92
1500.34
1499.55
1498.54
1497.26
1495.65
1493.65
1491.16
1488.04
1484.11
1479.13
1472.83
1464.44
1501.11
1502.12
1502.77
1503.01
1502.96
1502.72
1502.32
1501.77
1501.05
1500.15
1499.02
1497.64
1495.95
1493.87
1491.3
1488.11
1484.13
1479.1
1472.76
1464.36
1500.44
1501.08
1501.43
1501.49
1501.35
1501.06
1500.64
1500.07
1499.34
1498.43
1497.3
1495.91
1494.21
1492.12
1489.55
1486.36
1482.38
1477.36
1471.04
1462.68
1499.58
1499.04
1498.46
1497.89
1497.32
1496.72
1496.07
1495.33
1494.49
1493.51
1492.35
1490.97
1489.31
1487.28
1484.8
1481.72
1477.89
1473.06
1466.98
1458.9
1499.49
1498.8
1498.14
1497.53
1496.95
1496.36
1495.73
1495.02
1494.21
1493.28
1492.19
1490.9
1489.37
1487.52
1485.3
1482.61
1479.34
1475.36
1470.57
1464.66
1500.24
1500.61
1500.72
1500.61
1500.37
1500.02
1499.57
1499.01
1498.32
1497.47
1496.43
1495.17
1493.65
1491.79
1489.53
1486.77
1483.4
1479.28
1474.29
1468.12
1500.38
1500.91
1501.37
1501.63
1501.7
1501.62
1501.39
1501.01
1500.46
1499.72
1498.76
1497.57
1496.08
1494.24
1491.99
1489.22
1485.82
1481.64
1476.57
1470.29
1500.64
1501.22
1501.77
1502.16
1502.34
1502.33
1502.15
1501.81
1501.29
1500.58
1499.65
1498.48
1497.01
1495.19
1492.95
1490.19
1486.79
1482.61
1477.51
1471.18
1500.14
1500.37
1500.71
1501.01
1501.18
1501.21
1501.1
1500.82
1500.38
1499.75
1498.9
1497.81
1496.41
1494.66
1492.49
1489.78
1486.43
1482.28
1477.21
1470.88
1500.08
1500.19
1500.33
1500.43
1500.43
1500.33
1500.12
1499.78
1499.29
1498.63
1497.77
1496.67
1495.28
1493.54
1491.37
1488.68
1485.34
1481.2
1476.12
1469.76
1500.09
1500.19
1500.28
1500.28
1500.18
1499.99
1499.67
1499.24
1498.66
1497.92
1496.98
1495.81
1494.36
1492.57
1490.34
1487.6
1484.2
1480.01
1474.88
1468.43
1500.1
1500.21
1500.29
1500.27
1500.14
1499.89
1499.53
1499.04
1498.4
1497.6
1496.59
1495.35
1493.83
1491.97
1489.68
1486.86
1483.38
1479.1
1473.88
1467.32
1500.1
1500.22
1500.31
1500.28
1500.14
1499.88
1499.5
1498.98
1498.32
1497.48
1496.43
1495.15
1493.59
1491.67
1489.32
1486.44
1482.91
1478.55
1473.26
1466.6
1500.1
1500.23
1500.32
1500.29
1500.15
1499.88
1499.49
1498.97
1498.29
1497.44
1496.38
1495.08
1493.5
1491.56
1489.18
1486.27
1482.7
1478.31
1472.97
1466.26
1500.1
1500.23
1500.32
1500.29
1500.15
1499.88
1499.49
1498.97
1498.29
1497.44
1496.38
1495.08
1493.5
1491.56
1489.18
1486.27
1482.7
1478.31
1472.97
1466.26
1500.1
1500.22
1500.31
1500.28
1500.14
1499.88
1499.5
1498.98
1498.32
1497.48
1496.43
1495.15
1493.59
1491.67
1489.32
1486.44
1482.91
1478.55
1473.26
1466.6
1500.1
1500.21
1500.29
1500.27
1500.14
1499.89
1499.53
1499.04
1498.4
1497.6
1496.59
1495.35
1493.83
1491.97
1489.67
1486.86
1483.38
1479.1
1473.88
1467.32
1500.09
1500.19
1500.28
1500.28
1500.18
1499.99
1499.67
1499.24
1498.66
1497.92
1496.98
1495.81
1494.36
1492.57
1490.34
1487.6
1484.2
1480.01
1474.88
1468.43
1500.08
1500.19
1500.33
1500.43
1500.43
1500.33
1500.12
1499.78
1499.29
1498.63
1497.77
1496.67
1495.28
1493.54
1491.37
1488.68
1485.34
1481.19
1476.12
1469.76
1500.14
1500.37
1500.71
1501.01
1501.18
1501.21
1501.1
1500.82
1500.38
1499.75
1498.9
1497.81
1496.41
1494.66
1492.49
1489.78
1486.43
1482.28
1477.21
1470.87
1500.64
1501.22
1501.77
1502.16
1502.34
1502.33
1502.15
1501.81
1501.29
1500.58
1499.65
1498.48
1497.01
1495.19
1492.95
1490.19
1486.79
1482.61
1477.51
1471.18
1500.38
1500.91
1501.37
1501.63
1501.7
1501.62
1501.39
1501.01
1500.46
1499.72
1498.76
1497.57
1496.08
1494.24
1491.99
1489.22
1485.82
1481.64
1476.57
1470.29
1500.24
1500.61
1500.72
1500.61
1500.37
1500.02
1499.57
1499.01
1498.32
1497.47
1496.43
1495.17
1493.65
1491.79
1489.53
1486.77
1483.4
1479.28
1474.29
1468.12
1499.49
1498.8
1498.14
1497.53
1496.95
1496.36
1495.73
1495.02
1494.21
1493.28
1492.19
1490.9
1489.37
1487.52
1485.3
1482.61
1479.34
1475.36
1470.57
1464.66
1499.49
1498.8
1498.17
1497.6
1497.05
1496.47
1495.84
1495.14
1494.36
1493.47
1492.45
1491.26
1489.88
1488.25
1486.33
1484.05
1481.37
1478.2
1474.53
1470.25
1500.23
1500.55
1500.6
1500.42
1500.1
1499.68
1499.18
1498.58
1497.87
1497.05
1496.07
1494.92
1493.56
1491.93
1489.99
1487.68
1484.92
1481.65
1477.82
1473.34
1500.29
1500.64
1500.88
1500.95
1500.89
1500.72
1500.46
1500.08
1499.58
1498.93
1498.1
1497.07
1495.8
1494.25
1492.36
1490.06
1487.3
1483.99
1480.09
1475.5
1500.14
1500.38
1500.73
1501.05
1501.24
1501.3
1501.23
1501.01
1500.63
1500.08
1499.33
1498.37
1497.15
1495.63
1493.76
1491.47
1488.7
1485.37
1481.42
1476.75
1500.45
1500.77
1501.13
1501.44
1501.6
1501.62
1501.5
1501.25
1500.86
1500.3
1499.57
1498.62
1497.42
1495.92
1494.07
1491.8
1489.04
1485.7
1481.75
1477.04
1500.05
1500.13
1500.31
1500.51
1500.63
1500.65
1500.56
1500.34
1499.98
1499.46
1498.76
1497.85
1496.68
1495.22
1493.4
1491.16
1488.42
1485.11
1481.16
1476.44
1500.01
1500
1500.02
1500.05
1500.03
1499.94
1499.75
1499.47
1499.06
1498.5
1497.77
1496.84
1495.66
1494.19
1492.36
1490.11
1487.37
1484.04
1480.08
1475.33
1500.02
1500.01
1499.99
1499.94
1499.84
1499.66
1499.39
1499.02
1498.53
1497.91
1497.11
1496.12
1494.88
1493.35
1491.48
1489.18
1486.39
1483.02
1479.01
1474.2
1500.03
1500.03
1500.01
1499.94
1499.81
1499.59
1499.28
1498.86
1498.32
1497.64
1496.79
1495.74
1494.45
1492.86
1490.93
1488.58
1485.73
1482.3
1478.23
1473.36
1500.03
1500.04
1500.02
1499.95
1499.81
1499.58
1499.25
1498.81
1498.26
1497.55
1496.67
1495.59
1494.27
1492.66
1490.69
1488.3
1485.42
1481.95
1477.84
1472.92
1500.03
1500.04
1500.02
1499.95
1499.81
1499.58
1499.25
1498.81
1498.26
1497.55
1496.67
1495.59
1494.27
1492.66
1490.69
1488.3
1485.42
1481.95
1477.84
1472.92
1500.03
1500.03
1500.01
1499.94
1499.81
1499.59
1499.28
1498.86
1498.32
1497.64
1496.79
1495.74
1494.45
1492.86
1490.93
1488.58
1485.73
1482.3
1478.23
1473.36
1500.02
1500.01
1499.99
1499.94
1499.84
1499.66
1499.39
1499.02
1498.53
1497.91
1497.11
1496.12
1494.88
1493.35
1491.48
1489.18
1486.39
1483.02
1479.01
1474.2
1500.01
1500
1500.02
1500.05
1500.03
1499.94
1499.75
1499.47
1499.06
1498.5
1497.77
1496.84
1495.66
1494.19
1492.36
1490.11
1487.37
1484.04
1480.08
1475.33
1500.05
1500.13
1500.31
1500.51
1500.63
1500.65
1500.56
1500.34
1499.98
1499.46
1498.76
1497.85
1496.68
1495.22
1493.4
1491.16
1488.42
1485.11
1481.16
1476.44
1500.45
1500.77
1501.13
1501.44
1501.6
1501.62
1501.5
1501.25
1500.86
1500.3
1499.57
1498.62
1497.42
1495.92
1494.07
1491.8
1489.04
1485.7
1481.75
1477.04
1500.14
1500.38
1500.73
1501.05
1501.24
1501.3
1501.23
1501.01
1500.63
1500.08
1499.33
1498.37
1497.15
1495.63
1493.76
1491.47
1488.7
1485.37
1481.42
1476.75
1500.29
1500.64
1500.88
1500.95
1500.89
1500.72
1500.46
1500.08
1499.58
1498.93
1498.1
1497.07
1495.8
1494.25
1492.35
1490.06
1487.3
1483.99
1480.09
1475.5
1500.23
1500.55
1500.6
1500.42
1500.1
1499.68
1499.18
1498.58
1497.87
1497.05
1496.07
1494.92
1493.56
1491.93
1489.99
1487.68
1484.92
1481.65
1477.82
1473.34
1499.49
1498.8
1498.17
1497.6
1497.05
1496.47
1495.84
1495.14
1494.36
1493.47
1492.45
1491.26
1489.88
1488.25
1486.32
1484.05
1481.37
1478.2
1474.53
1470.24
1499.49
1498.81
1498.19
1497.64
1497.12
1496.58
1496
1495.37
1494.67
1493.89
1493
1491.98
1490.81
1489.45
1487.88
1486.04
1483.93
1481.5
1478.76
1475.73
1500.23
1500.56
1500.61
1500.43
1500.11
1499.69
1499.19
1498.61
1497.95
1497.19
1496.32
1495.3
1494.12
1492.75
1491.14
1489.27
1487.09
1484.58
1481.73
1478.55
1500.29
1500.63
1500.81
1500.8
1500.67
1500.45
1500.15
1499.76
1499.28
1498.68
1497.95
1497.06
1495.99
1494.7
1493.16
1491.32
1489.16
1486.64
1483.75
1480.5
1500.08
1500.21
1500.38
1500.53
1500.6
1500.59
1500.49
1500.29
1499.97
1499.51
1498.91
1498.12
1497.14
1495.92
1494.43
1492.63
1490.49
1487.96
1485.05
1481.74
1500.05
1500.13
1500.33
1500.55
1500.71
1500.78
1500.74
1500.59
1500.32
1499.92
1499.36
1498.62
1497.67
1496.48
1495.02
1493.24
1491.11
1488.58
1485.64
1482.29
1500.35
1500.55
1500.76
1500.95
1501.05
1501.05
1500.95
1500.74
1500.41
1499.96
1499.37
1498.6
1497.64
1496.44
1494.97
1493.18
1491.04
1488.5
1485.55
1482.16
1500.02
1500.02
1500.09
1500.2
1500.27
1500.27
1500.17
1499.98
1499.67
1499.24
1498.66
1497.91
1496.95
1495.76
1494.3
1492.52
1490.38
1487.84
1484.89
1481.49
1499.99
1499.91
1499.86
1499.82
1499.77
1499.67
1499.5
1499.25
1498.9
1498.43
1497.82
1497.05
1496.08
1494.88
1493.41
1491.63
1489.48
1486.94
1483.98
1480.57
1500
1499.93
1499.83
1499.73
1499.61
1499.43
1499.19
1498.87
1498.46
1497.93
1497.27
1496.45
1495.44
1494.21
1492.71
1490.89
1488.72
1486.16
1483.18
1479.75
1500
1499.94
1499.84
1499.73
1499.57
1499.37
1499.09
1498.74
1498.29
1497.73
1497.03
1496.18
1495.14
1493.87
1492.34
1490.5
1488.31
1485.72
1482.73
1479.28
1500
1499.94
1499.84
1499.73
1499.57
1499.37
1499.09
1498.74
1498.29
1497.73
1497.03
1496.18
1495.14
1493.87
1492.34
1490.5
1488.31
1485.72
1482.73
1479.28
1500
1499.93
1499.83
1499.73
1499.61
1499.43
1499.19
1498.87
1498.46
1497.93
1497.27
1496.45
1495.44
1494.21
1492.71
1490.89
1488.72
1486.16
1483.18
1479.75
1499.99
1499.91
1499.86
1499.82
1499.77
1499.67
1499.5
1499.25
1498.9
1498.43
1497.82
1497.05
1496.08
1494.88
1493.41
1491.63
1489.48
1486.94
1483.98
1480.57
1500.02
1500.02
1500.09
1500.2
1500.27
1500.27
1500.17
1499.98
1499.67
1499.24
1498.66
1497.91
1496.95
1495.76
1494.3
1492.52
1490.38
1487.84
1484.89
1481.49
1500.35
1500.55
1500.76
1500.95
1501.05
1501.05
1500.95
1500.73
1500.41
1499.96
1499.37
1498.6
1497.64
1496.44
1494.97
1493.18
1491.04
1488.5
1485.55
1482.16
1500.05
1500.13
1500.33
1500.55
1500.71
1500.78
1500.74
1500.59
1500.32
1499.92
1499.36
1498.62
1497.67
1496.48
1495.02
1493.24
1491.11
1488.58
1485.64
1482.29
1500.08
1500.21
1500.38
1500.53
1500.6
1500.59
1500.49
1500.29
1499.97
1499.51
1498.91
1498.12
1497.14
1495.92
1494.43
1492.63
1490.49
1487.96
1485.05
1481.73
1500.29
1500.63
1500.81
1500.8
1500.67
1500.45
1500.15
1499.76
1499.28
1498.68
1497.95
1497.06
1495.99
1494.7
1493.16
1491.32
1489.16
1486.64
1483.75
1480.49
1500.23
1500.56
1500.61
1500.43
1500.11
1499.69
1499.19
1498.61
1497.95
1497.19
1496.32
1495.3
1494.12
1492.75
1491.14
1489.27
1487.09
1484.58
1481.73
1478.55
1499.49
1498.81
1498.19
1497.64
1497.12
1496.58
1496
1495.37
1494.67
1493.89
1493
1491.98
1490.81
1489.45
1487.88
1486.04
1483.93
1481.5
1478.76
1475.73
1499.49
1498.82
1498.23
1497.72
1497.23
1496.75
1496.24
1495.69
1495.09
1494.43
1493.69
1492.85
1491.9
1490.82
1489.59
1488.18
1486.6
1484.83
1482.89
1480.83
1500.24
1500.58
1500.65
1500.5
1500.21
1499.83
1499.39
1498.87
1498.29
1497.63
1496.89
1496.04
1495.07
1493.97
1492.7
1491.25
1489.61
1487.77
1485.75
1483.58
1500.3
1500.66
1500.84
1500.84
1500.71
1500.5
1500.22
1499.87
1499.44
1498.93
1498.3
1497.57
1496.69
1495.67
1494.46
1493.06
1491.44
1489.61
1487.57
1485.37
1500.09
1500.23
1500.37
1500.46
1500.48
1500.44
1500.32
1500.13
1499.84
1499.46
1498.96
1498.33
1497.55
1496.61
1495.47
1494.13
1492.55
1490.74
1488.7
1486.47
1500.02
1500.02
1500.08
1500.17
1500.24
1500.25
1500.21
1500.08
1499.88
1499.58
1499.16
1498.61
1497.9
1497.02
1495.94
1494.64
1493.1
1491.31
1489.27
1487.03
1500.02
1500.03
1500.12
1500.25
1500.36
1500.41
1500.38
1500.27
1500.07
1499.77
1499.35
1498.79
1498.08
1497.2
1496.12
1494.81
1493.26
1491.45
1489.4
1487.13
1500.3
1500.43
1500.55
1500.67
1500.74
1500.73
1500.64
1500.47
1500.21
1499.85
1499.37
1498.78
1498.03
1497.11
1496
1494.67
1493.09
1491.26
1489.19
1486.89
1500.01
1499.97
1499.98
1500.03
1500.08
1500.07
1499.99
1499.84
1499.6
1499.26
1498.8
1498.22
1497.48
1496.58
1495.48
1494.15
1492.59
1490.77
1488.7
1486.41
1499.98
1499.88
1499.78
1499.7
1499.63
1499.54
1499.41
1499.21
1498.94
1498.58
1498.12
1497.53
1496.8
1495.9
1494.81
1493.51
1491.96
1490.17
1488.13
1485.86
1499.98
1499.88
1499.75
1499.62
1499.49
1499.34
1499.16
1498.91
1498.6
1498.21
1497.72
1497.12
1496.37
1495.47
1494.38
1493.08
1491.55
1489.76
1487.74
1485.49
1499.98
1499.88
1499.75
1499.62
1499.49
1499.34
1499.16
1498.91
1498.6
1498.21
1497.72
1497.12
1496.37
1495.47
1494.38
1493.08
1491.55
1489.76
1487.74
1485.49
1499.98
1499.88
1499.78
1499.7
1499.63
1499.54
1499.41
1499.21
1498.94
1498.58
1498.12
1497.53
1496.8
1495.9
1494.81
1493.51
1491.96
1490.17
1488.13
1485.86
1500.01
1499.97
1499.98
1500.03
1500.08
1500.07
1499.99
1499.84
1499.6
1499.26
1498.8
1498.22
1497.48
1496.58
1495.48
1494.15
1492.59
1490.77
1488.7
1486.41
1500.3
1500.43
1500.55
1500.67
1500.74
1500.73
1500.64
1500.47
1500.21
1499.85
1499.37
1498.78
1498.03
1497.11
1496
1494.66
1493.09
1491.26
1489.19
1486.89
1500.02
1500.03
1500.12
1500.25
1500.36
1500.41
1500.38
1500.27
1500.07
1499.77
1499.35
1498.79
1498.08
1497.2
1496.12
1494.81
1493.26
1491.45
1489.4
1487.13
1500.02
1500.02
1500.08
1500.17
1500.24
1500.25
1500.2
1500.08
1499.88
1499.58
1499.16
1498.61
1497.9
1497.02
1495.94
1494.64
1493.1
1491.31
1489.27
1487.03
1500.09
1500.23
1500.36
1500.46
1500.48
1500.44
1500.32
1500.13
1499.84
1499.46
1498.96
1498.33
1497.55
1496.61
1495.47
1494.13
1492.55
1490.74
1488.7
1486.47
1500.3
1500.66
1500.84
1500.84
1500.71
1500.5
1500.22
1499.87
1499.44
1498.93
1498.3
1497.57
1496.69
1495.66
1494.46
1493.06
1491.44
1489.61
1487.57
1485.36
1500.24
1500.58
1500.65
1500.5
1500.21
1499.83
1499.39
1498.87
1498.29
1497.63
1496.89
1496.04
1495.07
1493.96
1492.7
1491.25
1489.61
1487.77
1485.75
1483.58
1499.49
1498.82
1498.23
1497.72
1497.23
1496.75
1496.24
1495.69
1495.09
1494.43
1493.69
1492.85
1491.9
1490.82
1489.58
1488.18
1486.6
1484.83
1482.89
1480.83
1499.49
1498.84
1498.27
1497.79
1497.35
1496.93
1496.49
1496.03
1495.54
1495.01
1494.43
1493.79
1493.07
1492.28
1491.39
1490.4
1489.3
1488.12
1486.86
1485.59
1500.24
1500.6
1500.7
1500.58
1500.33
1500.01
1499.64
1499.21
1498.73
1498.2
1497.61
1496.95
1496.21
1495.39
1494.46
1493.43
1492.29
1491.05
1489.73
1488.38
1500.31
1500.68
1500.9
1500.92
1500.83
1500.67
1500.45
1500.17
1499.83
1499.42
1498.94
1498.38
1497.73
1496.97
1496.1
1495.11
1494
1492.77
1491.45
1490.08
1500.1
1500.26
1500.42
1500.52
1500.56
1500.54
1500.46
1500.31
1500.09
1499.8
1499.43
1498.97
1498.4
1497.73
1496.93
1496
1494.94
1493.75
1492.45
1491.09
1500.03
1500.04
1500.09
1500.14
1500.18
1500.18
1500.13
1500.04
1499.89
1499.67
1499.38
1499
1498.51
1497.91
1497.19
1496.32
1495.31
1494.17
1492.9
1491.55
1499.99
1499.94
1499.92
1499.95
1499.99
1500.01
1499.99
1499.93
1499.8
1499.61
1499.35
1498.99
1498.53
1497.96
1497.26
1496.41
1495.42
1494.28
1493.02
1491.68
1500.01
1499.98
1500.01
1500.09
1500.18
1500.23
1500.23
1500.16
1500.03
1499.83
1499.54
1499.17
1498.68
1498.09
1497.36
1496.5
1495.49
1494.33
1493.06
1491.7
1500.26
1500.35
1500.43
1500.5
1500.56
1500.56
1500.51
1500.4
1500.23
1499.99
1499.67
1499.26
1498.75
1498.13
1497.39
1496.51
1495.49
1494.33
1493.05
1491.68
1499.99
1499.93
1499.91
1499.93
1499.97
1499.99
1499.97
1499.9
1499.76
1499.56
1499.27
1498.9
1498.43
1497.85
1497.15
1496.3
1495.32
1494.19
1492.94
1491.6
1499.97
1499.84
1499.71
1499.64
1499.6
1499.57
1499.52
1499.44
1499.31
1499.12
1498.86
1498.52
1498.08
1497.54
1496.87
1496.06
1495.12
1494.03
1492.81
1491.5
1499.97
1499.84
1499.71
1499.64
1499.6
1499.57
1499.52
1499.44
1499.31
1499.12
1498.86
1498.52
1498.08
1497.54
1496.87
1496.06
1495.12
1494.03
1492.81
1491.5
1499.99
1499.93
1499.91
1499.93
1499.97
1499.99
1499.97
1499.9
1499.76
1499.56
1499.27
1498.9
1498.43
1497.85
1497.15
1496.3
1495.32
1494.19
1492.94
1491.59
1500.26
1500.35
1500.43
1500.5
1500.56
1500.56
1500.51
1500.4
1500.23
1499.99
1499.66
1499.26
1498.75
1498.13
1497.39
1496.51
1495.49
1494.33
1493.05
1491.68
1500.01
1499.98
1500.01
1500.09
1500.18
1500.23
1500.23
1500.16
1500.03
1499.83
1499.54
1499.17
1498.68
1498.09
1497.36
1496.5
1495.49
1494.33
1493.06
1491.7
1499.99
1499.94
1499.92
1499.95
1499.99
1500.01
1499.99
1499.93
1499.8
1499.61
1499.35
1498.99
1498.53
1497.96
1497.25
1496.41
1495.42
1494.28
1493.02
1491.68
1500.03
1500.04
1500.09
1500.14
1500.18
1500.18
1500.13
1500.04
1499.89
1499.67
1499.38
1499
1498.51
1497.91
1497.19
1496.32
1495.31
1494.16
1492.9
1491.55
1500.1
1500.26
1500.42
1500.52
1500.56
1500.54
1500.46
1500.31
1500.09
1499.8
1499.43
1498.97
1498.4
1497.73
1496.93
1496
1494.94
1493.75
1492.45
1491.08
1500.31
1500.68
1500.9
1500.92
1500.83
1500.67
1500.45
1500.17
1499.83
1499.42
1498.94
1498.38
1497.73
1496.97
1496.1
1495.11
1494
1492.77
1491.45
1490.08
1500.24
1500.6
1500.7
1500.58
1500.33
1500.01
1499.64
1499.21
1498.73
1498.2
1497.61
1496.95
1496.21
1495.39
1494.46
1493.43
1492.29
1491.05
1489.73
1488.38
1499.49
1498.84
1498.27
1497.79
1497.35
1496.93
1496.49
1496.03
1495.54
1495.01
1494.43
1493.79
1493.07
1492.28
1491.39
1490.4
1489.3
1488.12
1486.86
1485.59
1499.49
1498.85
1498.31
1497.86
1497.47
1497.11
1496.75
1496.38
1496.01
1495.61
1495.2
1494.75
1494.27
1493.75
1493.19
1492.58
1491.94
1491.27
1490.6
1489.97
1500.24
1500.62
1500.74
1500.66
1500.46
1500.2
1499.9
1499.57
1499.21
1498.81
1498.39
1497.92
1497.42
1496.88
1496.29
1495.65
1494.97
1494.26
1493.54
1492.86
1500.31
1500.71
1500.95
1501.01
1500.96
1500.86
1500.71
1500.52
1500.29
1500.02
1499.7
1499.33
1498.91
1498.43
1497.89
1497.3
1496.65
1495.96
1495.26
1494.58
1500.11
1500.29
1500.47
1500.61
1500.69
1500.72
1500.7
1500.63
1500.52
1500.35
1500.13
1499.85
1499.51
1499.1
1498.64
1498.11
1497.51
1496.87
1496.2
1495.55
1500.04
1500.08
1500.14
1500.22
1500.28
1500.31
1500.31
1500.27
1500.21
1500.1
1499.94
1499.74
1499.47
1499.15
1498.76
1498.3
1497.77
1497.19
1496.58
1495.97
1500
1499.96
1499.94
1499.95
1499.97
1499.98
1499.98
1499.96
1499.91
1499.82
1499.7
1499.52
1499.3
1499.01
1498.66
1498.24
1497.76
1497.22
1496.64
1496.08
1499.98
1499.9
1499.84
1499.84
1499.87
1499.91
1499.93
1499.93
1499.9
1499.83
1499.71
1499.55
1499.34
1499.06
1498.72
1498.31
1497.84
1497.31
1496.74
1496.18
1500
1499.94
1499.94
1499.99
1500.08
1500.16
1500.21
1500.23
1500.21
1500.15
1500.04
1499.88
1499.66
1499.38
1499.04
1498.62
1498.14
1497.61
1497.03
1496.46
1500.23
1500.28
1500.32
1500.39
1500.47
1500.54
1500.58
1500.59
1500.56
1500.5
1500.39
1500.23
1500.02
1499.74
1499.4
1499
1498.52
1497.99
1497.41
1496.83
1499.98
1499.89
1499.88
1499.94
1500.07
1500.2
1500.31
1500.39
1500.44
1500.43
1500.38
1500.28
1500.11
1499.88
1499.57
1499.19
1498.74
1498.22
1497.66
1497.09
1499.98
1499.89
1499.88
1499.94
1500.07
1500.2
1500.31
1500.39
1500.44
1500.43
1500.38
1500.28
1500.11
1499.88
1499.57
1499.19
1498.74
1498.22
1497.66
1497.09
1500.23
1500.28
1500.32
1500.39
1500.47
1500.54
1500.58
1500.59
1500.56
1500.5
1500.39
1500.23
1500.02
1499.74
1499.4
1499
1498.52
1497.99
1497.41
1496.83
1500
1499.94
1499.94
1499.99
1500.08
1500.16
1500.21
1500.23
1500.21
1500.15
1500.04
1499.88
1499.66
1499.38
1499.04
1498.62
1498.14
1497.61
1497.03
1496.46
1499.98
1499.9
1499.84
1499.84
1499.87
1499.91
1499.93
1499.93
1499.9
1499.83
1499.71
1499.55
1499.34
1499.06
1498.72
1498.31
1497.84
1497.31
1496.74
1496.18
1500
1499.96
1499.94
1499.95
1499.97
1499.98
1499.98
1499.96
1499.91
1499.82
1499.7
1499.52
1499.3
1499.01
1498.66
1498.24
1497.76
1497.22
1496.64
1496.08
1500.04
1500.08
1500.14
1500.22
1500.28
1500.31
1500.31
1500.27
1500.21
1500.1
1499.94
1499.74
1499.47
1499.15
1498.76
1498.3
1497.77
1497.19
1496.58
1495.97
1500.11
1500.29
1500.47
1500.61
1500.69
1500.72
1500.7
1500.63
1500.52
1500.35
1500.13
1499.85
1499.51
1499.1
1498.64
1498.11
1497.51
1496.87
1496.2
1495.55
1500.31
1500.71
1500.95
1501.01
1500.96
1500.86
1500.71
1500.52
1500.29
1500.02
1499.7
1499.33
1498.91
1498.43
1497.89
1497.3
1496.65
1495.96
1495.26
1494.57
1500.24
1500.62
1500.74
1500.66
1500.46
1500.2
1499.9
1499.57
1499.21
1498.81
1498.39
1497.92
1497.42
1496.88
1496.29
1495.65
1494.97
1494.26
1493.54
1492.86
1499.49
1498.85
1498.31
1497.86
1497.47
1497.11
1496.75
1496.38
1496.01
1495.61
1495.2
1494.75
1494.27
1493.75
1493.19
1492.58
1491.94
1491.27
1490.6
1489.97
1499.5
1498.87
1498.34
1497.94
1497.6
1497.29
1497.01
1496.74
1496.48
1496.22
1495.97
1495.71
1495.46
1495.21
1494.96
1494.71
1494.48
1494.27
1494.1
1494
1500.25
1500.63
1500.79
1500.74
1500.59
1500.39
1500.17
1499.94
1499.69
1499.43
1499.17
1498.91
1498.64
1498.37
1498.1
1497.83
1497.57
1497.34
1497.14
1497.02
1500.31
1500.72
1500.99
1501.09
1501.09
1501.05
1500.98
1500.89
1500.78
1500.64
1500.49
1500.32
1500.13
1499.93
1499.71
1499.49
1499.28
1499.08
1498.91
1498.81
1500.11
1500.31
1500.52
1500.7
1500.82
1500.91
1500.97
1501
1501
1500.96
1500.91
1500.82
1500.72
1500.59
1500.45
1500.3
1500.14
1500
1499.89
1499.84
1500.04
1500.1
1500.2
1500.31
1500.4
1500.49
1500.56
1500.61
1500.65
1500.68
1500.68
1500.67
1500.64
1500.59
1500.53
1500.46
1500.38
1500.32
1500.28
1500.31
1500.01
1499.99
1499.99
1500.02
1500.07
1500.12
1500.18
1500.23
1500.27
1500.31
1500.34
1500.36
1500.37
1500.37
1500.36
1500.35
1500.33
1500.33
1500.36
1500.44