/*--------------------------------*- C++ -*----------------------------------*\
  =========                 |
  \\      /  F ield         | OpenFOAM: The Open Source CFD Toolbox
   \\    /   O peration     | Website:  https://openfoam.org
    \\  /    A nd           | Version:  10
     \\/     M anipulation  |
\*---------------------------------------------------------------------------*/
FoamFile
{
    format      ascii;
    class       volVectorField;
    location    "300";
    object      U;
}
// * * * * * * * * * * * * * * * * * * * * * * * * * * * * * * * * * * * * * //

dimensions      [0 1 -1 0 0 0 0];

internalField   nonuniform List<vector> 
112000
(
(347.898 -14.0425 13.9474)
(350.757 -11.0454 10.8466)
(352.313 -9.27558 8.97102)
(352.84 -8.07539 7.66386)
(353.095 -7.17371 6.65188)
(353.464 -6.47727 5.83918)
(354.08 -5.93988 5.17564)
(355.017 -5.52917 4.62376)
(356.356 -5.22396 4.15594)
(358.195 -5.01374 3.75318)
(360.649 -4.89693 3.40224)
(363.857 -4.87933 3.09333)
(367.997 -4.9747 2.81879)
(373.301 -5.20782 2.57223)
(380.09 -5.62132 2.34786)
(388.821 -6.29028 2.13985)
(400.193 -7.35531 1.94124)
(415.376 -9.10409 1.74214)
(436.173 -12.1937 1.51637)
(472.18 -18.2648 1.33173)
(349.333 -15.2842 -3.55905)
(351.503 -11.5934 -5.40051)
(353.403 -9.22813 -5.86271)
(354.991 -7.63643 -5.82786)
(356.518 -6.48708 -5.65041)
(358.183 -5.63475 -5.41673)
(360.08 -5.00686 -5.15225)
(362.273 -4.55681 -4.87666)
(364.833 -4.2538 -4.60456)
(367.849 -4.07966 -4.34375)
(371.428 -4.02634 -4.09769)
(375.702 -4.09455 -3.86811)
(380.841 -4.29413 -3.65646)
(387.072 -4.64663 -3.46461)
(394.702 -5.19158 -3.29549)
(404.177 -6.00028 -3.1539)
(416.176 -7.20749 -3.04796)
(431.844 -9.08861 -2.9917)
(452.919 -12.2836 -3.01548)
(489.068 -18.3608 -3.10577)
(349.075 -15.2389 0.484901)
(351.412 -11.3928 0.946695)
(353.779 -8.85167 1.36533)
(356.11 -7.13222 1.65474)
(358.428 -5.90447 1.79456)
(360.82 -5.00415 1.82571)
(363.371 -4.34777 1.78999)
(366.158 -3.88428 1.7113)
(369.26 -3.57985 1.60188)
(372.769 -3.41353 1.46914)
(376.796 -3.37492 1.31777)
(381.475 -3.46285 1.1499)
(386.98 -3.68568 0.965018)
(393.537 -4.0637 0.759929)
(401.455 -4.63515 0.528374)
(411.177 -5.46978 0.26018)
(423.381 -6.70019 -0.0604368)
(439.209 -8.59792 -0.458105)
(460.377 -11.7997 -0.976516)
(496.662 -17.8695 -1.63606)
(349.377 -15.2063 -0.06964)
(352.159 -11.4129 -0.399154)
(354.811 -8.9312 -0.8248)
(357.311 -7.26181 -1.21172)
(359.76 -6.08421 -1.52679)
(362.276 -5.23373 -1.77436)
(364.958 -4.6233 -1.96428)
(367.889 -4.20009 -2.10806)
(371.149 -3.92972 -2.21814)
(374.828 -3.79105 -2.30631)
(379.033 -3.77356 -2.38317)
(383.898 -3.87605 -2.45852)
(389.591 -4.10683 -2.54223)
(396.339 -4.48604 -2.64507)
(404.449 -5.05163 -2.77971)
(414.365 -5.87279 -2.962)
(426.769 -7.08124 -3.21288)
(442.811 -8.94696 -3.56133)
(464.206 -12.1053 -4.05147)
(500.902 -18.1213 -4.71033)
(349.376 -15.1664 -0.111224)
(352.137 -11.3662 -0.249203)
(354.708 -8.87292 -0.355083)
(357.121 -7.16981 -0.402703)
(359.529 -5.94687 -0.40918)
(362.056 -5.0494 -0.401961)
(364.787 -4.39401 -0.398656)
(367.792 -3.92913 -0.407988)
(371.147 -3.6212 -0.435002)
(374.935 -3.44947 -0.483583)
(379.26 -3.40334 -0.557323)
(384.254 -3.48113 -0.660209)
(390.085 -3.69041 -0.797432)
(396.981 -4.0504 -0.976219)
(405.251 -4.59798 -1.20675)
(415.345 -5.40119 -1.50334)
(427.95 -6.59047 -1.8861)
(444.229 -8.43432 -2.38331)
(465.902 -11.5666 -3.03637)
(503.03 -17.5522 -3.87432)
(349.375 -15.1514 -0.108664)
(352.135 -11.3489 -0.229486)
(354.711 -8.86196 -0.34696)
(357.14 -7.16453 -0.460177)
(359.576 -5.94734 -0.572457)
(362.139 -5.05874 -0.687099)
(364.908 -4.41559 -0.804444)
(367.954 -3.96492 -0.923554)
(371.351 -3.6717 -1.04454)
(375.186 -3.514 -1.16933)
(379.563 -3.48031 -1.30144)
(384.617 -3.56813 -1.44587)
(390.517 -3.78435 -1.60925)
(397.492 -4.14758 -1.80026)
(405.856 -4.69413 -2.0302)
(416.062 -5.49147 -2.31389)
(428.802 -6.66942 -2.67077)
(445.251 -8.4956 -3.12656)
(467.135 -11.603 -3.71603)
(504.626 -17.5582 -4.46653)
(349.372 -15.1442 -0.0897876)
(352.124 -11.338 -0.185953)
(354.688 -8.8519 -0.273664)
(357.103 -7.15445 -0.351073)
(359.526 -5.93352 -0.419085)
(362.077 -5.03798 -0.480278)
(364.839 -4.38574 -0.537617)
(367.884 -3.92432 -0.594289)
(371.286 -3.619 -0.654007)
(375.133 -3.44827 -0.721076)
(379.533 -3.40097 -0.800294)
(384.618 -3.47489 -0.897009)
(390.56 -3.67706 -1.01743)
(397.59 -4.02611 -1.16909)
(406.023 -4.55823 -1.36147)
(416.316 -5.34063 -1.60672)
(429.167 -6.50274 -1.92051)
(445.757 -8.31152 -2.32318)
(467.818 -11.3989 -2.84113)
(505.578 -17.3334 -3.49771)
(349.37 -15.1404 -0.0656317)
(352.115 -11.3317 -0.135645)
(354.67 -8.84601 -0.19904)
(357.079 -7.14988 -0.255868)
(359.5 -5.92937 -0.308908)
(362.053 -5.03344 -0.361446)
(364.822 -4.38081 -0.41594)
(367.875 -3.91944 -0.474157)
(371.289 -3.61468 -0.537792)
(375.153 -3.44487 -0.608863)
(379.573 -3.39865 -0.689862)
(384.682 -3.47358 -0.783912)
(390.655 -3.6764 -0.895002)
(397.723 -4.02542 -1.02831)
(406.205 -4.55654 -1.19061)
(416.559 -5.33659 -1.39065)
(429.487 -6.4946 -1.63975)
(446.175 -8.29696 -1.95233)
(468.361 -11.3748 -2.34641)
(506.322 -17.2993 -2.84129)
(349.369 -15.1384 -0.0397507)
(352.109 -11.3284 -0.0821976)
(354.658 -8.84273 -0.120591)
(357.063 -7.14739 -0.154893)
(359.481 -5.9272 -0.186767)
(362.035 -5.03075 -0.218034)
(364.804 -4.37692 -0.249863)
(367.859 -3.91388 -0.283044)
(371.276 -3.60699 -0.318535)
(375.145 -3.43454 -0.357717)
(379.572 -3.38515 -0.402419)
(384.693 -3.45638 -0.454932)
(390.683 -3.65498 -0.518092)
(397.773 -3.99928 -0.595444)
(406.283 -4.52512 -0.691437)
(416.676 -5.29931 -0.811675)
(429.654 -6.45072 -0.963177)
(446.407 -8.24546 -1.15471)
(468.677 -11.314 -1.39654)
(506.76 -17.2296 -1.70277)
(349.368 -15.1377 -0.0133095)
(352.106 -11.327 -0.0275414)
(354.653 -8.84132 -0.0404327)
(357.055 -7.14635 -0.0519554)
(359.473 -5.92642 -0.0626933)
(362.026 -5.02988 -0.0733307)
(364.796 -4.37572 -0.0843515)
(367.853 -3.91226 -0.0961198)
(371.273 -3.60493 -0.109051)
(375.146 -3.43204 -0.123682)
(379.579 -3.3822 -0.140666)
(384.707 -3.45296 -0.160768)
(390.706 -3.65104 -0.1849)
(397.808 -3.99472 -0.214179)
(406.334 -4.51977 -0.250009)
(416.746 -5.2929 -0.294164)
(429.75 -6.44285 -0.348877)
(446.535 -8.2355 -0.416949)
(468.847 -11.3008 -0.501537)
(506.993 -17.2139 -0.608345)
(349.368 -15.1377 0.0132762)
(352.106 -11.327 0.0274714)
(354.653 -8.84132 0.0403245)
(357.055 -7.14635 0.0518068)
(359.473 -5.92642 0.0625011)
(362.026 -5.02988 0.0730905)
(364.796 -4.37572 0.0840578)
(367.853 -3.91226 0.0957656)
(371.273 -3.60493 0.108628)
(375.146 -3.43204 0.123179)
(379.579 -3.3822 0.140071)
(384.707 -3.45296 0.160066)
(390.706 -3.65104 0.184072)
(397.808 -3.99472 0.213204)
(406.334 -4.51977 0.248861)
(416.747 -5.2929 0.292812)
(429.75 -6.44285 0.347284)
(446.535 -8.2355 0.415071)
(468.847 -11.3008 0.499325)
(506.994 -17.2139 0.605732)
(349.369 -15.1384 0.0397182)
(352.109 -11.3284 0.0821292)
(354.658 -8.84273 0.120485)
(357.063 -7.14739 0.154748)
(359.481 -5.9272 0.186579)
(362.035 -5.03075 0.217799)
(364.804 -4.37692 0.249575)
(367.859 -3.91388 0.282697)
(371.276 -3.60699 0.318121)
(375.145 -3.43454 0.357225)
(379.572 -3.38515 0.401837)
(384.693 -3.45638 0.454244)
(390.683 -3.65498 0.517282)
(397.773 -3.99928 0.594489)
(406.283 -4.52512 0.690313)
(416.676 -5.2993 0.810351)
(429.654 -6.45071 0.961617)
(446.407 -8.24545 1.15287)
(468.677 -11.314 1.39437)
(506.761 -17.2296 1.70022)
(349.37 -15.1404 0.0656006)
(352.115 -11.3317 0.13558)
(354.67 -8.84601 0.198938)
(357.079 -7.14988 0.255729)
(359.5 -5.92937 0.308728)
(362.053 -5.03344 0.361221)
(364.822 -4.38081 0.415665)
(367.875 -3.91944 0.473826)
(371.29 -3.61468 0.537396)
(375.153 -3.44487 0.608392)
(379.573 -3.39865 0.689306)
(384.682 -3.47358 0.783256)
(390.656 -3.6764 0.894228)
(397.724 -4.02542 1.0274)
(406.205 -4.55653 1.18954)
(416.559 -5.33658 1.38939)
(429.487 -6.49458 1.63826)
(446.176 -8.29694 1.95058)
(468.362 -11.3748 2.34434)
(506.323 -17.2992 2.83886)
(349.372 -15.1442 0.0897588)
(352.124 -11.338 0.185892)
(354.688 -8.8519 0.27357)
(357.103 -7.15445 0.350944)
(359.526 -5.93352 0.418917)
(362.077 -5.03798 0.480068)
(364.839 -4.38574 0.53736)
(367.884 -3.92431 0.593978)
(371.286 -3.619 0.653636)
(375.134 -3.44827 0.720636)
(379.533 -3.40096 0.799773)
(384.618 -3.47489 0.896394)
(390.561 -3.67706 1.0167)
(397.59 -4.0261 1.16824)
(406.024 -4.55821 1.36047)
(416.317 -5.34062 1.60553)
(429.168 -6.50272 1.91911)
(445.758 -8.31149 2.32154)
(467.819 -11.3988 2.8392)
(505.58 -17.3333 3.49542)
(349.375 -15.1514 0.108638)
(352.135 -11.3489 0.229432)
(354.711 -8.86196 0.346876)
(357.14 -7.16453 0.460061)
(359.576 -5.94734 0.572306)
(362.139 -5.05874 0.68691)
(364.908 -4.41559 0.804213)
(367.954 -3.96492 0.923276)
(371.351 -3.67169 1.04421)
(375.186 -3.514 1.16894)
(379.564 -3.4803 1.30098)
(384.617 -3.56813 1.44532)
(390.517 -3.78434 1.60861)
(397.493 -4.14756 1.7995)
(405.857 -4.69412 2.02931)
(416.062 -5.49146 2.31284)
(428.803 -6.66939 2.66954)
(445.252 -8.49556 3.12511)
(467.137 -11.6029 3.71431)
(504.628 -17.5581 4.4645)
(349.376 -15.1664 0.111202)
(352.137 -11.3662 0.249157)
(354.708 -8.87292 0.355011)
(357.121 -7.16981 0.402602)
(359.529 -5.94687 0.409048)
(362.056 -5.0494 0.401796)
(364.787 -4.394 0.398453)
(367.793 -3.92912 0.407742)
(371.147 -3.6212 0.434707)
(374.935 -3.44946 0.483233)
(379.26 -3.40333 0.556909)
(384.254 -3.48111 0.659722)
(390.086 -3.69039 0.796857)
(396.982 -4.05038 0.975544)
(405.252 -4.59796 1.20596)
(415.346 -5.40116 1.50241)
(427.951 -6.59043 1.885)
(444.23 -8.43427 2.38202)
(465.904 -11.5666 3.03485)
(503.033 -17.5521 3.87252)
(349.377 -15.2063 0.0696232)
(352.159 -11.4129 0.399118)
(354.811 -8.9312 0.824744)
(357.311 -7.2618 1.21165)
(359.76 -6.0842 1.52669)
(362.276 -5.23372 1.77423)
(364.958 -4.62329 1.96413)
(367.889 -4.20008 2.10787)
(371.149 -3.92971 2.21791)
(374.828 -3.79104 2.30604)
(379.033 -3.77354 2.38285)
(383.898 -3.87603 2.45815)
(389.592 -4.10681 2.54179)
(396.339 -4.48602 2.64455)
(404.449 -5.0516 2.7791)
(414.366 -5.87276 2.96128)
(426.77 -7.0812 3.21204)
(442.812 -8.9469 3.56033)
(464.208 -12.1053 4.05028)
(500.905 -18.1212 4.70892)
(349.075 -15.2389 -0.484912)
(351.412 -11.3928 -0.946722)
(353.779 -8.85166 -1.36537)
(356.111 -7.13221 -1.65481)
(358.428 -5.90446 -1.79465)
(360.82 -5.00414 -1.82582)
(363.371 -4.34776 -1.79012)
(366.158 -3.88427 -1.71146)
(369.26 -3.57983 -1.60207)
(372.769 -3.41351 -1.46936)
(376.796 -3.37489 -1.31803)
(381.476 -3.46282 -1.15021)
(386.981 -3.68565 -0.965382)
(393.538 -4.06366 -0.760355)
(401.456 -4.63511 -0.528872)
(411.178 -5.46974 -0.260763)
(423.382 -6.70013 0.059753)
(439.211 -8.59785 0.457301)
(460.379 -11.7996 0.975566)
(496.665 -17.8694 1.63494)
(349.333 -15.2842 3.55905)
(351.503 -11.5934 5.40052)
(353.403 -9.22812 5.8627)
(354.991 -7.63641 5.82783)
(356.518 -6.48706 5.65038)
(358.183 -5.63474 5.41669)
(360.08 -5.00684 5.15219)
(362.273 -4.55679 4.8766)
(364.834 -4.25377 4.60448)
(367.85 -4.07964 4.34365)
(371.428 -4.02631 4.09757)
(375.702 -4.09452 3.86797)
(380.842 -4.2941 3.6563)
(387.073 -4.64659 3.46442)
(394.703 -5.19153 3.29525)
(404.178 -6.00023 3.15362)
(416.178 -7.20743 3.04762)
(431.846 -9.08854 2.99129)
(452.922 -12.2835 3.01498)
(489.071 -18.3607 3.10515)
(347.898 -14.0425 -13.9474)
(350.757 -11.0454 -10.8466)
(352.313 -9.27556 -8.971)
(352.84 -8.07537 -7.66384)
(353.095 -7.17368 -6.65187)
(353.464 -6.47724 -5.83916)
(354.08 -5.93985 -5.17563)
(355.017 -5.52913 -4.62375)
(356.356 -5.22392 -4.15593)
(358.195 -5.0137 -3.75318)
(360.649 -4.89688 -3.40224)
(363.858 -4.87928 -3.09334)
(367.998 -4.97465 -2.81881)
(373.302 -5.20776 -2.57225)
(380.091 -5.62126 -2.3479)
(388.822 -6.2902 -2.1399)
(400.194 -7.35523 -1.94131)
(415.378 -9.10399 -1.74224)
(436.175 -12.1936 -1.51651)
(472.183 -18.2646 -1.33192)
(349.318 3.26216 15.1784)
(351.44 4.77592 11.3679)
(353.272 4.91496 8.87881)
(354.775 4.54427 7.15605)
(356.201 4.00653 5.86502)
(357.746 3.37494 4.85607)
(359.506 2.66065 4.05153)
(361.543 1.86763 3.39891)
(363.927 0.992077 2.86022)
(366.745 0.0189838 2.40763)
(370.096 -1.07771 2.02122)
(374.104 -2.33618 1.68573)
(378.923 -3.80938 1.38906)
(384.752 -5.57285 1.12111)
(391.855 -7.73956 0.872819)
(400.589 -10.4883 0.63531)
(411.444 -14.1201 0.398951)
(425.109 -19.1761 0.151596)
(442.311 -26.7163 -0.119922)
(466.09 -38.6734 -0.366843)
(403.04 1.64703 -1.93278)
(399.651 2.493 -3.09953)
(397.276 2.4241 -3.36687)
(395.863 1.93997 -3.23901)
(395.172 1.32239 -3.00597)
(395.072 0.652521 -2.75922)
(395.506 -0.0586812 -2.52207)
(396.454 -0.815147 -2.30537)
(397.926 -1.62786 -2.11577)
(399.957 -2.51625 -1.956)
(402.615 -3.5091 -1.8276)
(405.998 -4.64514 -1.73136)
(410.238 -5.97685 -1.66837)
(415.516 -7.57791 -1.6408)
(422.078 -9.55736 -1.65285)
(430.267 -12.0863 -1.71166)
(440.557 -15.4519 -1.82884)
(453.625 -20.1714 -2.02345)
(470.185 -27.2843 -2.31679)
(493.211 -38.5757 -2.67627)
(405.491 0.702126 0.373725)
(404.088 1.15603 0.639303)
(403.363 1.05111 0.815601)
(403.356 0.616482 0.895818)
(403.822 0.0692444 0.88725)
(404.633 -0.513255 0.816086)
(405.776 -1.12493 0.708884)
(407.277 -1.77774 0.581601)
(409.183 -2.48817 0.441363)
(411.558 -3.27796 0.290932)
(414.486 -4.17566 0.130754)
(418.077 -5.21897 -0.0407927)
(422.473 -6.45897 -0.227439)
(427.863 -7.96751 -0.43521)
(434.498 -9.85074 -0.672916)
(442.722 -12.2753 -0.953004)
(453.014 -15.5221 -1.29286)
(466.054 -20.0985 -1.71725)
(482.545 -27.0376 -2.25855)
(505.46 -38.0755 -2.9063)
(405.895 0.699637 -0.145669)
(405.149 1.00988 -0.370658)
(405.069 0.776304 -0.643339)
(405.615 0.23107 -0.88765)
(406.576 -0.420709 -1.07276)
(407.849 -1.09307 -1.20459)
(409.425 -1.77166 -1.29764)
(411.332 -2.46726 -1.36548)
(413.618 -3.1986 -1.42001)
(416.347 -3.99012 -1.47155)
(419.604 -4.87298 -1.52901)
(423.5 -5.88716 -1.60059)
(428.179 -7.08522 -1.69467)
(433.831 -8.53963 -1.82073)
(440.71 -10.3563 -1.99021)
(449.163 -12.7007 -2.21771)
(459.674 -15.8509 -2.52251)
(472.93 -20.3098 -2.93078)
(489.635 -27.1058 -3.47779)
(512.835 -37.9619 -4.1695)
(405.884 0.814971 -0.141731)
(405.172 1.09806 -0.261577)
(405.173 0.823822 -0.354866)
(405.841 0.273594 -0.423229)
(406.967 -0.363078 -0.471622)
(408.449 -1.0141 -0.511253)
(410.263 -1.66867 -0.552243)
(412.425 -2.33846 -0.600817)
(414.972 -3.04321 -0.660942)
(417.965 -3.80801 -0.736078)
(421.484 -4.66405 -0.829989)
(425.639 -5.65074 -0.947251)
(430.574 -6.81967 -1.0938)
(436.481 -8.24199 -1.27756)
(443.616 -10.022 -1.50919)
(452.331 -12.3231 -1.803)
(463.117 -15.421 -2.1783)
(476.67 -19.8147 -2.66105)
(493.696 -26.5283 -3.28579)
(517.308 -37.2785 -4.06444)
(405.873 0.864336 -0.117418)
(405.151 1.1415 -0.227473)
(405.168 0.838146 -0.324492)
(405.877 0.26715 -0.418393)
(407.062 -0.383399 -0.512356)
(408.616 -1.04888 -0.605765)
(410.515 -1.71968 -0.698268)
(412.773 -2.4053 -0.790688)
(415.427 -3.12342 -0.885076)
(418.537 -3.89783 -0.984696)
(422.182 -4.75874 -1.09395)
(426.474 -5.74477 -1.21841)
(431.557 -6.90677 -1.36501)
(437.623 -8.31517 -1.54247)
(444.933 -10.0734 -1.76188)
(453.842 -12.3438 -2.03754)
(464.845 -15.4006 -2.38794)
(478.65 -19.7406 -2.83715)
(495.968 -26.3855 -3.41633)
(519.991 -37.0508 -4.1403)
(405.866 0.887347 -0.0906927)
(405.128 1.17114 -0.179148)
(405.134 0.859958 -0.254625)
(405.841 0.283148 -0.321878)
(407.031 -0.365605 -0.385515)
(408.597 -1.0243 -0.447162)
(410.514 -1.6858 -0.507905)
(412.801 -2.36033 -0.569783)
(415.494 -3.06574 -0.635749)
(418.652 -3.82605 -0.709367)
(422.358 -4.67176 -0.794718)
(426.721 -5.64156 -0.896558)
(431.886 -6.78621 -1.02064)
(438.049 -8.17578 -1.17413)
(445.472 -9.91318 -1.36618)
(454.512 -12.16 -1.60855)
(465.671 -15.1895 -1.91647)
(479.663 -19.497 -2.30963)
(497.207 -26.1026 -2.81316)
(521.54 -36.7216 -3.44106)
(405.862 0.899557 -0.0642661)
(405.113 1.18977 -0.128363)
(405.109 0.875772 -0.183633)
(405.811 0.293785 -0.232498)
(407.002 -0.35739 -0.279753)
(408.573 -1.01596 -0.328192)
(410.499 -1.67657 -0.378872)
(412.798 -2.35022 -0.4327)
(415.509 -3.05477 -0.491127)
(418.69 -3.81394 -0.556176)
(422.425 -4.65793 -0.630393)
(426.823 -5.62513 -0.716968)
(432.033 -6.76591 -0.819964)
(438.25 -8.14993 -0.944614)
(445.738 -9.87963 -1.09769)
(454.859 -12.1161 -1.28792)
(466.118 -15.1319 -1.52657)
(480.235 -19.4218 -1.82809)
(497.931 -26.005 -2.21076)
(522.488 -36.5993 -2.68703)
(405.86 0.905952 -0.0382806)
(405.104 1.20033 -0.0769226)
(405.092 0.885618 -0.110643)
(405.79 0.300797 -0.140242)
(406.981 -0.3519 -0.168567)
(408.553 -1.00985 -0.197605)
(410.482 -1.66841 -0.228039)
(412.785 -2.3392 -0.260271)
(415.502 -3.04017 -0.295108)
(418.692 -3.79497 -0.33385)
(422.439 -4.63379 -0.378205)
(426.855 -5.595 -0.430291)
(432.087 -6.72899 -0.492754)
(438.334 -8.10537 -0.568938)
(445.859 -9.82652 -0.663096)
(455.027 -12.0534 -0.78065)
(466.345 -15.0584 -0.928504)
(480.538 -19.3359 -1.11547)
(498.33 -25.9049 -1.35245)
(523.023 -36.4857 -1.64833)
(405.859 0.908714 -0.0127169)
(405.1 1.20508 -0.0256286)
(405.085 0.890328 -0.0369834)
(405.78 0.304282 -0.0469426)
(406.971 -0.349272 -0.0564414)
(408.543 -1.00715 -0.066229)
(410.474 -1.66502 -0.0766107)
(412.779 -2.33485 -0.0877599)
(415.498 -3.03473 -0.0999755)
(418.693 -3.78832 -0.11372)
(422.446 -4.62574 -0.129582)
(426.87 -5.58536 -0.148271)
(432.112 -6.7175 -0.170658)
(438.372 -8.09171 -0.19784)
(445.914 -9.81026 -0.231212)
(455.105 -12.034 -0.272561)
(466.451 -15.0352 -0.324166)
(480.68 -19.308 -0.388956)
(498.518 -25.8712 -0.470535)
(523.278 -36.4476 -0.572409)
(405.859 0.908714 0.0126867)
(405.1 1.20508 0.0255662)
(405.085 0.890328 0.036887)
(405.78 0.304283 0.0468098)
(406.971 -0.349272 0.056269)
(408.543 -1.00715 0.0660129)
(410.474 -1.66502 0.0763456)
(412.779 -2.33485 0.0874392)
(415.498 -3.03473 0.0995911)
(418.693 -3.78831 0.113262)
(422.446 -4.62574 0.129039)
(426.87 -5.58536 0.147628)
(432.112 -6.71749 0.169898)
(438.372 -8.09171 0.196942)
(445.914 -9.81026 0.230152)
(455.105 -12.034 0.271307)
(466.451 -15.0352 0.322684)
(480.68 -19.308 0.387203)
(498.519 -25.8712 0.468458)
(523.278 -36.4476 0.569945)
(405.86 0.905952 0.038251)
(405.104 1.20033 0.0768614)
(405.092 0.885619 0.110548)
(405.79 0.300798 0.140112)
(406.981 -0.351898 0.168398)
(408.553 -1.00985 0.197393)
(410.482 -1.66841 0.227779)
(412.785 -2.3392 0.259956)
(415.502 -3.04016 0.294731)
(418.692 -3.79497 0.333402)
(422.439 -4.63379 0.377673)
(426.855 -5.595 0.429661)
(432.088 -6.72898 0.49201)
(438.334 -8.10536 0.568058)
(445.859 -9.8265 0.662057)
(455.027 -12.0534 0.779423)
(466.346 -15.0584 0.927054)
(480.539 -19.3359 1.11375)
(498.331 -25.9048 1.35042)
(523.023 -36.4857 1.64592)
(405.862 0.899557 0.0642378)
(405.113 1.18978 0.128305)
(405.109 0.875774 0.183542)
(405.811 0.293787 0.232373)
(407.002 -0.357387 0.279591)
(408.573 -1.01596 0.327989)
(410.499 -1.67656 0.378623)
(412.799 -2.35022 0.432398)
(415.509 -3.05476 0.490766)
(418.69 -3.81393 0.555746)
(422.425 -4.65792 0.629883)
(426.824 -5.62512 0.716365)
(432.034 -6.76589 0.819251)
(438.251 -8.14991 0.943773)
(445.739 -9.8796 1.09669)
(454.86 -12.1161 1.28675)
(466.118 -15.1319 1.52518)
(480.235 -19.4217 1.82645)
(497.932 -26.0049 2.20882)
(522.489 -36.5992 2.68473)
(405.866 0.887349 0.0906662)
(405.128 1.17114 0.179093)
(405.134 0.859961 0.25454)
(405.841 0.283152 0.321762)
(407.031 -0.3656 0.385364)
(408.597 -1.02429 0.446971)
(410.514 -1.6858 0.507672)
(412.801 -2.36032 0.569501)
(415.494 -3.06573 0.635411)
(418.652 -3.82604 0.708964)
(422.358 -4.67174 0.79424)
(426.721 -5.64154 0.895994)
(431.887 -6.78618 1.01997)
(438.05 -8.17575 1.17334)
(445.472 -9.91314 1.36525)
(454.512 -12.16 1.60745)
(465.671 -15.1894 1.91517)
(479.664 -19.4969 2.3081)
(497.208 -26.1025 2.81134)
(521.542 -36.7215 3.43891)
(405.873 0.864338 0.117395)
(405.151 1.14151 0.227424)
(405.168 0.83815 0.324416)
(405.877 0.267156 0.418287)
(407.062 -0.383393 0.512219)
(408.616 -1.04888 0.605593)
(410.515 -1.71967 0.698057)
(412.773 -2.40529 0.790433)
(415.427 -3.12341 0.88477)
(418.537 -3.89781 0.984332)
(422.183 -4.75872 1.09352)
(426.474 -5.74474 1.21791)
(431.557 -6.90674 1.36441)
(437.624 -8.31514 1.54176)
(444.934 -10.0733 1.76105)
(453.842 -12.3437 2.03655)
(464.846 -15.4005 2.38677)
(478.651 -19.7405 2.83577)
(495.97 -26.3854 3.4147)
(519.993 -37.0506 4.13837)
(405.884 0.814973 0.141711)
(405.172 1.09806 0.261534)
(405.174 0.823828 0.354799)
(405.841 0.273602 0.423137)
(406.967 -0.363068 0.471501)
(408.449 -1.01408 0.511101)
(410.263 -1.66865 0.552057)
(412.425 -2.33844 0.600592)
(414.973 -3.04319 0.660672)
(417.965 -3.80799 0.735757)
(421.484 -4.66403 0.82961)
(425.639 -5.65071 0.946803)
(430.574 -6.81963 1.09327)
(436.481 -8.24195 1.27694)
(443.617 -10.0219 1.50845)
(452.332 -12.323 1.80214)
(463.118 -15.4209 2.17728)
(476.671 -19.8146 2.65984)
(493.697 -26.5282 3.28436)
(517.31 -37.2783 4.06275)
(405.895 0.699641 0.145653)
(405.149 1.00989 0.370623)
(405.069 0.776312 0.643284)
(405.615 0.231081 0.887574)
(406.576 -0.420697 1.07266)
(407.849 -1.09305 1.20446)
(409.425 -1.77164 1.29749)
(411.332 -2.46724 1.3653)
(413.618 -3.19858 1.41979)
(416.347 -3.99009 1.47129)
(419.604 -4.87295 1.5287)
(423.5 -5.88712 1.60023)
(428.179 -7.08518 1.69425)
(433.831 -8.53958 1.82023)
(440.711 -10.3562 1.98961)
(449.164 -12.7006 2.21701)
(459.675 -15.8508 2.52169)
(472.932 -20.3096 2.92981)
(489.637 -27.1056 3.47663)
(512.837 -37.9617 4.16813)
(405.491 0.702131 -0.373737)
(404.088 1.15604 -0.639333)
(403.363 1.05112 -0.815649)
(403.356 0.616497 -0.895885)
(403.822 0.0692608 -0.887334)
(404.633 -0.513236 -0.81619)
(405.776 -1.12491 -0.709009)
(407.277 -1.77771 -0.58175)
(409.183 -2.48814 -0.441541)
(411.558 -3.27792 -0.291142)
(414.486 -4.17562 -0.131001)
(418.077 -5.21893 0.0405036)
(422.474 -6.45892 0.227101)
(427.864 -7.96745 0.434813)
(434.499 -9.85066 0.672451)
(442.723 -12.2753 0.952458)
(453.015 -15.522 1.29222)
(466.056 -20.0983 1.71649)
(482.547 -27.0374 2.25765)
(505.463 -38.0753 2.90523)
(403.04 1.64704 1.93278)
(399.651 2.49301 3.09952)
(397.276 2.42411 3.36685)
(395.863 1.93999 3.23897)
(395.172 1.32241 3.00592)
(395.072 0.652546 2.75915)
(395.506 -0.0586528 2.52199)
(396.454 -0.815114 2.30528)
(397.926 -1.62782 2.11567)
(399.957 -2.51621 1.95587)
(402.616 -3.50906 1.82745)
(405.998 -4.64509 1.73119)
(410.238 -5.97679 1.66816)
(415.516 -7.57784 1.64056)
(422.079 -9.55728 1.65256)
(430.268 -12.0862 1.71132)
(440.558 -15.4518 1.82844)
(453.627 -20.1712 2.02298)
(470.187 -27.2841 2.31623)
(493.214 -38.5754 2.67559)
(349.318 3.26216 -15.1784)
(351.44 4.77594 -11.3679)
(353.273 4.915 -8.87881)
(354.775 4.54431 -7.15606)
(356.201 4.00657 -5.86503)
(357.746 3.37499 -4.85609)
(359.507 2.6607 -4.05154)
(361.544 1.86768 -3.39893)
(363.927 0.992131 -2.86024)
(366.745 0.0190428 -2.40766)
(370.097 -1.07764 -2.02126)
(374.105 -2.33611 -1.68578)
(378.923 -3.8093 -1.38912)
(384.752 -5.57276 -1.12119)
(391.856 -7.73946 -0.872911)
(400.59 -10.4882 -0.63542)
(411.446 -14.1199 -0.399084)
(425.111 -19.1759 -0.151758)
(442.314 -26.7161 0.119723)
(466.093 -38.6731 0.366596)
(349.064 -0.941457 15.1425)
(351.353 -1.91618 11.1832)
(353.636 -2.86074 8.52101)
(355.845 -3.69949 6.66999)
(358.002 -4.42807 5.29712)
(360.188 -5.1051 4.23442)
(362.488 -5.79259 3.39391)
(364.971 -6.53877 2.71903)
(367.706 -7.38592 2.16916)
(370.776 -8.37845 1.71499)
(374.279 -9.56754 1.33395)
(378.324 -11.0167 1.0089)
(383.041 -12.8078 0.726304)
(388.591 -15.0514 0.475028)
(395.174 -17.9031 0.245472)
(403.037 -21.5923 0.028382)
(412.483 -26.4703 -0.186377)
(423.865 -33.0867 -0.411179)
(437.427 -42.3248 -0.659961)
(454.39 -55.4049 -0.900763)
(405.475 -0.806584 -0.981203)
(404.031 -1.53971 -1.74489)
(403.242 -2.20029 -1.96609)
(403.15 -2.79576 -1.8799)
(403.508 -3.34813 -1.71156)
(404.19 -3.90047 -1.5483)
(405.179 -4.49884 -1.40812)
(406.498 -5.18236 -1.2935)
(408.189 -5.98629 -1.20562)
(410.309 -6.94851 -1.14443)
(412.929 -8.11424 -1.10987)
(416.143 -9.53966 -1.1041)
(420.072 -11.2985 -1.1293)
(424.868 -13.4918 -1.18853)
(430.723 -16.264 -1.28659)
(437.881 -19.8294 -1.43136)
(446.642 -24.5153 -1.63508)
(457.37 -30.8392 -1.91646)
(470.322 -39.6398 -2.29656)
(486.734 -51.9902 -2.74576)
(433.874 -1.68271 1.2644)
(430.776 -2.66627 1.79704)
(428.354 -3.23561 1.89869)
(426.881 -3.66198 1.82686)
(426.122 -4.04494 1.66567)
(425.877 -4.43768 1.45102)
(426.074 -4.88782 1.21106)
(426.712 -5.43698 0.964773)
(427.813 -6.12136 0.720946)
(429.417 -6.97704 0.481414)
(431.581 -8.04557 0.244365)
(434.39 -9.37924 0.00607696)
(437.955 -11.0477 -0.239274)
(442.42 -13.1477 -0.499587)
(447.971 -15.8176 -0.785385)
(454.849 -19.2629 -1.11048)
(463.355 -23.801 -1.49275)
(473.859 -29.9353 -1.95614)
(486.617 -38.4847 -2.52908)
(502.877 -50.4501 -3.19843)
(436.367 -2.32725 -0.177091)
(435.383 -3.53131 -0.290812)
(434.54 -4.09261 -0.451106)
(434.117 -4.46427 -0.606293)
(434.078 -4.79753 -0.71765)
(434.351 -5.14664 -0.792745)
(434.931 -5.55382 -0.848856)
(435.854 -6.05853 -0.898379)
(437.172 -6.69637 -0.949813)
(438.945 -7.50261 -1.01013)
(441.247 -8.51773 -1.08541)
(444.17 -9.79282 -1.1815)
(447.831 -11.3958 -1.30512)
(452.38 -13.421 -1.46453)
(458.007 -16.0038 -1.67015)
(464.958 -19.3462 -1.93541)
(473.541 -23.7605 -2.2779)
(484.134 -29.7428 -2.7209)
(497 -38.1025 -3.29363)
(513.427 -49.8136 -3.99411)
(436.433 -2.24541 -0.228705)
(435.731 -3.51056 -0.293733)
(435.374 -4.13946 -0.31126)
(435.483 -4.55228 -0.336849)
(435.964 -4.91017 -0.36697)
(436.742 -5.27194 -0.400125)
(437.801 -5.67977 -0.441709)
(439.17 -6.17386 -0.496223)
(440.898 -6.79168 -0.566071)
(443.046 -7.5703 -0.65328)
(445.691 -8.55122 -0.760584)
(448.93 -9.78576 -0.89189)
(452.885 -11.3415 -1.05267)
(457.71 -13.3117 -1.25042)
(463.604 -15.8301 -1.49523)
(470.817 -19.0964 -1.80049)
(479.666 -23.4193 -2.18385)
(490.542 -29.29 -2.66815)
(503.711 -37.5112 -3.28205)
(520.509 -49.0475 -4.02892)
(436.396 -2.14859 -0.154236)
(435.686 -3.44511 -0.24964)
(435.426 -4.13461 -0.311521)
(435.698 -4.58559 -0.380136)
(436.366 -4.96417 -0.458971)
(437.343 -5.34052 -0.540255)
(438.616 -5.76042 -0.621079)
(440.208 -6.26367 -0.702873)
(442.165 -6.88686 -0.788554)
(444.546 -7.66634 -0.881751)
(447.427 -8.64284 -0.986924)
(450.904 -9.8668 -1.10956)
(455.1 -11.4048 -1.25641)
(460.173 -13.3488 -1.43584)
(466.322 -15.8313 -1.65843)
(473.804 -19.05 -1.93755)
(482.942 -23.311 -2.29019)
(494.137 -29.102 -2.73774)
(507.659 -37.2213 -3.30659)
(524.908 -48.6313 -4.00318)
(436.379 -2.10382 -0.106765)
(435.637 -3.40163 -0.194354)
(435.373 -4.11475 -0.254535)
(435.672 -4.58141 -0.307257)
(436.385 -4.96415 -0.362793)
(437.418 -5.3393 -0.420688)
(438.761 -5.7562 -0.479696)
(440.438 -6.25503 -0.54117)
(442.494 -6.87191 -0.608019)
(444.987 -7.64288 -0.683674)
(447.992 -8.60842 -0.77197)
(451.605 -9.81864 -0.877407)
(455.95 -11.3396 -1.0055)
(461.185 -13.2626 -1.16316)
(467.512 -15.7192 -1.35921)
(475.191 -18.9058 -1.60485)
(484.552 -23.127 -1.91437)
(496.002 -28.8678 -2.30573)
(509.818 -36.9237 -2.80097)
(527.445 -48.256 -3.40706)
(436.371 -2.08147 -0.071904)
(435.607 -3.37238 -0.137191)
(435.328 -4.09423 -0.185065)
(435.628 -4.57077 -0.224664)
(436.353 -4.95778 -0.265723)
(437.405 -5.3331 -0.310938)
(438.77 -5.74866 -0.359679)
(440.478 -6.24565 -0.411935)
(442.572 -6.86015 -0.469011)
(445.111 -7.62795 -0.53298)
(448.172 -8.58933 -0.60641)
(451.851 -9.79406 -0.692482)
(456.272 -11.3078 -0.795241)
(461.595 -13.2215 -0.919883)
(468.024 -15.6658 -1.07307)
(475.824 -18.8366 -1.26332)
(485.327 -23.0373 -1.50142)
(496.946 -28.7518 -1.80093)
(510.962 -36.7739 -2.17841)
(528.858 -48.0657 -2.64075)
(436.367 -2.06979 -0.0417156)
(435.592 -3.35487 -0.081216)
(435.301 -4.07989 -0.111563)
(435.597 -4.56225 -0.13619)
(436.325 -4.95238 -0.160877)
(437.382 -5.32758 -0.188131)
(438.755 -5.74126 -0.217843)
(440.472 -6.23552 -0.2498)
(442.579 -6.84661 -0.28466)
(445.136 -7.61024 -0.323736)
(448.22 -8.5666 -0.368721)
(451.928 -9.76542 -0.421678)
(456.385 -11.2723 -0.485182)
(461.753 -13.1779 -0.562501)
(468.237 -15.6129 -0.657793)
(476.102 -18.7727 -0.776336)
(485.686 -22.9604 -0.924794)
(497.404 -28.6595 -1.11152)
(511.541 -36.6631 -1.34661)
(529.6 -47.9346 -1.63508)
(436.365 -2.06472 -0.0137023)
(435.585 -3.34681 -0.0269048)
(435.289 -4.07275 -0.0372952)
(435.582 -4.55772 -0.0456995)
(436.311 -4.94948 -0.0539829)
(437.37 -5.32473 -0.0631416)
(438.745 -5.73751 -0.0732446)
(440.465 -6.23048 -0.0842347)
(442.577 -6.84005 -0.09633)
(445.141 -7.6019 -0.109981)
(448.233 -8.55616 -0.125764)
(451.953 -9.75256 -0.14437)
(456.425 -11.2567 -0.166651)
(461.811 -13.1591 -0.193692)
(468.318 -15.5903 -0.226875)
(476.213 -18.7457 -0.267962)
(485.833 -22.9283 -0.319187)
(497.596 -28.6212 -0.383365)
(511.789 -36.6175 -0.463881)
(529.925 -47.8819 -0.562717)
(436.365 -2.06472 0.0136736)
(435.585 -3.34681 0.0268455)
(435.289 -4.07275 0.0372037)
(435.582 -4.55772 0.0455736)
(436.311 -4.94948 0.0538196)
(437.37 -5.32473 0.0629368)
(438.745 -5.73751 0.0729932)
(440.465 -6.23048 0.0839303)
(442.577 -6.84005 0.0959647)
(445.141 -7.60189 0.109545)
(448.233 -8.55616 0.125246)
(451.953 -9.75255 0.143756)
(456.425 -11.2566 0.165925)
(461.811 -13.1591 0.192833)
(468.318 -15.5903 0.225858)
(476.213 -18.7457 0.266758)
(485.833 -22.9283 0.31776)
(497.596 -28.6212 0.381671)
(511.789 -36.6175 0.461867)
(529.925 -47.8819 0.560321)
(436.367 -2.06979 0.0416875)
(435.592 -3.35487 0.0811579)
(435.301 -4.07989 0.111474)
(435.597 -4.56225 0.136067)
(436.325 -4.95238 0.160717)
(437.382 -5.32758 0.187931)
(438.755 -5.74125 0.217596)
(440.472 -6.23551 0.249502)
(442.579 -6.8466 0.284302)
(445.136 -7.61024 0.323309)
(448.22 -8.56659 0.368214)
(451.928 -9.76541 0.421077)
(456.385 -11.2723 0.484471)
(461.753 -13.1779 0.56166)
(468.237 -15.6129 0.656798)
(476.103 -18.7727 0.775157)
(485.686 -22.9604 0.923398)
(497.404 -28.6595 1.10987)
(511.542 -36.663 1.34464)
(529.601 -47.9345 1.63274)
(436.371 -2.08146 0.071877)
(435.607 -3.37237 0.137135)
(435.328 -4.09423 0.184979)
(435.628 -4.57076 0.224546)
(436.353 -4.95778 0.265569)
(437.405 -5.33309 0.310745)
(438.77 -5.74865 0.359442)
(440.478 -6.24564 0.411649)
(442.572 -6.86014 0.468668)
(445.111 -7.62794 0.532571)
(448.172 -8.58931 0.605924)
(451.851 -9.79404 0.691906)
(456.272 -11.3078 0.79456)