/*--------------------------------*- C++ -*----------------------------------*\
  =========                 |
  \\      /  F ield         | OpenFOAM: The Open Source CFD Toolbox
   \\    /   O peration     | Website:  https://openfoam.org
    \\  /    A nd           | Version:  10
     \\/     M anipulation  |
\*---------------------------------------------------------------------------*/
FoamFile
{
    format      ascii;
    class       volScalarField;
    location    "400";
    object      alphat;
}
// * * * * * * * * * * * * * * * * * * * * * * * * * * * * * * * * * * * * * //

dimensions      [1 -1 -1 0 0 0 0];

internalField   nonuniform List<scalar> 
112000
(
0.00276557
0.00278823
0.00281335
0.00284175
0.0028713
0.00290072
0.00292963
0.00295793
0.00298556
0.00301243
0.00303842
0.00306342
0.00308725
0.00310966
0.00313026
0.00314843
0.00316316
0.00317262
0.00317412
0.00315916
0.00277433
0.00283622
0.00289503
0.00295209
0.00300706
0.00305954
0.00310948
0.00315692
0.00320194
0.00324451
0.00328463
0.0033222
0.00335711
0.00338913
0.0034179
0.00344282
0.00346294
0.00347664
0.0034821
0.00347276
0.00278068
0.00285244
0.00292282
0.00299108
0.00305678
0.00311954
0.00317914
0.00323548
0.00328856
0.00333836
0.00338486
0.00342799
0.00346763
0.00350356
0.00353537
0.00356246
0.0035838
0.00359765
0.00360211
0.0035905
0.00278154
0.00285484
0.00292873
0.00300217
0.0030741
0.00314367
0.00321029
0.00327358
0.00333331
0.00338931
0.00344146
0.00348962
0.00353362
0.00357318
0.00360789
0.00363705
0.00365955
0.00367344
0.0036765
0.00366133
0.00278135
0.00285492
0.00292982
0.00300498
0.0030791
0.00315121
0.00322067
0.00328704
0.00334999
0.0034093
0.00346477
0.00351621
0.00356339
0.00360598
0.0036435
0.00367521
0.00369987
0.00371538
0.00371924
0.00370338
0.00278105
0.00285458
0.00292958
0.00300503
0.00307969
0.00315261
0.00322318
0.00329095
0.00335559
0.0034168
0.00347435
0.00352798
0.0035774
0.00362224
0.00366198
0.00369578
0.00372238
0.00373955
0.00374464
0.00372916
0.00278079
0.00285428
0.00292925
0.00300474
0.0030795
0.00315259
0.00322343
0.00329157
0.00335667
0.00341847
0.00347671
0.00353114
0.00358146
0.0036273
0.00366812
0.00370307
0.00373086
0.00374922
0.00375546
0.0037409
0.00278059
0.00285405
0.002929
0.00300448
0.00307923
0.00315233
0.0032232
0.0032914
0.00335662
0.00341858
0.00347705
0.00353176
0.00358244
0.00362869
0.00366997
0.00370543
0.00373377
0.00375271
0.00375953
0.00374551
0.00278045
0.0028539
0.00292884
0.00300431
0.00307904
0.00315213
0.00322298
0.00329118
0.0033564
0.00341837
0.00347687
0.00353163
0.00358238
0.00362872
0.00367011
0.00370572
0.00373423
0.00375337
0.00376044
0.00374665
0.00278038
0.00285383
0.00292876
0.00300422
0.00307895
0.00315203
0.00322286
0.00329105
0.00335626
0.00341822
0.00347671
0.00353147
0.00358222
0.00362858
0.00366999
0.00370563
0.00373417
0.00375336
0.00376049
0.00374675
0.00278038
0.00285383
0.00292876
0.00300422
0.00307895
0.00315203
0.00322286
0.00329105
0.00335626
0.00341822
0.00347671
0.00353147
0.00358222
0.00362858
0.00366999
0.00370563
0.00373417
0.00375336
0.00376049
0.00374675
0.00278045
0.0028539
0.00292884
0.00300431
0.00307904
0.00315213
0.00322298
0.00329118
0.0033564
0.00341837
0.00347687
0.00353163
0.00358238
0.00362872
0.00367011
0.00370572
0.00373423
0.00375337
0.00376043
0.00374665
0.00278059
0.00285405
0.002929
0.00300448
0.00307923
0.00315233
0.0032232
0.0032914
0.00335662
0.00341858
0.00347705
0.00353176
0.00358244
0.00362869
0.00366997
0.00370543
0.00373377
0.0037527
0.00375953
0.0037455
0.00278079
0.00285428
0.00292925
0.00300474
0.0030795
0.00315259
0.00322343
0.00329157
0.00335667
0.00341847
0.00347671
0.00353113
0.00358146
0.0036273
0.00366811
0.00370307
0.00373085
0.00374922
0.00375545
0.0037409
0.00278105
0.00285458
0.00292958
0.00300503
0.00307969
0.00315261
0.00322318
0.00329095
0.00335559
0.0034168
0.00347435
0.00352797
0.0035774
0.00362224
0.00366197
0.00369578
0.00372238
0.00373955
0.00374463
0.00372916
0.00278135
0.00285492
0.00292982
0.00300498
0.0030791
0.00315121
0.00322067
0.00328704
0.00334999
0.0034093
0.00346477
0.00351621
0.00356339
0.00360598
0.0036435
0.0036752
0.00369987
0.00371538
0.00371923
0.00370338
0.00278154
0.00285483
0.00292873
0.00300217
0.0030741
0.00314367
0.00321029
0.00327358
0.00333331
0.00338931
0.00344146
0.00348962
0.00353362
0.00357318
0.00360789
0.00363705
0.00365955
0.00367344
0.0036765
0.00366132
0.00278068
0.00285244
0.00292282
0.00299108
0.00305678
0.00311954
0.00317914
0.00323548
0.00328856
0.00333836
0.00338486
0.00342799
0.00346763
0.00350355
0.00353537
0.00356246
0.0035838
0.00359764
0.0036021
0.00359049
0.00277433
0.00283622
0.00289503
0.00295209
0.00300706
0.00305954
0.00310948
0.00315692
0.00320193
0.00324451
0.00328463
0.0033222
0.00335711
0.00338913
0.0034179
0.00344282
0.00346294
0.00347663
0.0034821
0.00347275
0.00276557
0.00278823
0.00281335
0.00284175
0.0028713
0.00290072
0.00292963
0.00295793
0.00298556
0.00301243
0.00303842
0.00306342
0.00308725
0.00310966
0.00313025
0.00314843
0.00316315
0.00317261
0.00317411
0.00315915
0.00277451
0.00283554
0.00289306
0.00294844
0.00300138
0.00305152
0.00309881
0.00314332
0.00318516
0.00322447
0.00326121
0.00329533
0.00332673
0.0033552
0.00338046
0.00340197
0.0034189
0.00342977
0.00343241
0.00342297
0.0261649
0.0235749
0.0218125
0.0204857
0.0194328
0.0185646
0.0178271
0.0171864
0.0166191
0.0161059
0.015637
0.0152054
0.0148063
0.0144363
0.0140941
0.0137803
0.0134994
0.0132613
0.0130985
0.0130388
0.0289352
0.0276345
0.0265155
0.0255052
0.0245917
0.0237638
0.023009
0.0223167
0.0216782
0.0210867
0.0205367
0.0200245
0.0195476
0.0191055
0.0186996
0.0183352
0.0180233
0.0177852
0.0176802
0.0177598
0.0291417
0.0281216
0.0272693
0.0264871
0.0257557
0.0250667
0.0244137
0.0237925
0.0232003
0.0226353
0.0220962
0.0215825
0.0210943
0.020633
0.0202017
0.019807
0.0194618
0.0191901
0.0190595
0.0191308
0.0291655
0.0282005
0.0274306
0.0267465
0.0261157
0.025521
0.0249516
0.0244008
0.0238653
0.0233432
0.0228341
0.0223381
0.0218561
0.0213899
0.0209429
0.020521
0.0201358
0.0198082
0.0196023
0.0195719
0.0291668
0.0282087
0.0274555
0.0267992
0.0262049
0.0256526
0.0251286
0.024624
0.0241332
0.0236527
0.0231808
0.0227164
0.0222597
0.0218117
0.0213749
0.0209541
0.0205586
0.0202061
0.019955
0.0198489
0.0291655
0.0282075
0.0274564
0.0268064
0.0262232
0.0256862
0.0251812
0.0246986
0.0242318
0.0237765
0.0233299
0.0228905
0.0224573
0.0220307
0.0216123
0.021206
0.0208197
0.0204685
0.0202075
0.0200718
0.0291641
0.0282058
0.0274542
0.0268047
0.0262235
0.0256903
0.0251909
0.0247156
0.0242578
0.0238132
0.0233787
0.0229523
0.022533
0.0221206
0.0217163
0.0213235
0.0209495
0.0206081
0.0203529
0.0202147
0.0291631
0.0282046
0.0274524
0.0268025
0.0262214
0.025689
0.0251909
0.0247178
0.024263
0.0238222
0.0233923
0.0229714
0.0225583
0.0221528
0.0217561
0.0213713
0.0210055
0.0206722
0.0204245
0.020291
0.0291626
0.028204
0.0274516
0.0268014
0.0262202
0.0256877
0.0251899
0.0247172
0.0242631
0.0238233
0.0233947
0.0229755
0.0225645
0.0221616
0.0217677
0.0213862
0.021024
0.0206945
0.020451
0.0203212
0.0291626
0.028204
0.0274516
0.0268014
0.0262202
0.0256877
0.0251899
0.0247172
0.0242631
0.0238233
0.0233947
0.0229755
0.0225645
0.0221616
0.0217677
0.0213862
0.021024
0.0206945
0.020451
0.0203212
0.0291631
0.0282046
0.0274524
0.0268025
0.0262214
0.025689
0.0251909
0.0247178
0.024263
0.0238222
0.0233923
0.0229714
0.0225583
0.0221528
0.0217561
0.0213713
0.0210055
0.0206722
0.0204245
0.020291
0.0291641
0.0282058
0.0274542
0.0268047
0.0262235
0.0256903
0.0251909
0.0247156
0.0242578
0.0238132
0.0233787
0.0229523
0.022533
0.0221206
0.0217163
0.0213235
0.0209495
0.0206081
0.0203529
0.0202147
0.0291655
0.0282075
0.0274564
0.0268064
0.0262232
0.0256862
0.0251812
0.0246986
0.0242318
0.0237765
0.0233299
0.0228904
0.0224573
0.0220307
0.0216123
0.021206
0.0208197
0.0204685
0.0202075
0.0200718
0.0291668
0.0282087
0.0274555
0.0267992
0.0262049
0.0256526
0.0251286
0.024624
0.0241332
0.0236527
0.0231808
0.0227164
0.0222597
0.0218117
0.0213749
0.020954
0.0205586
0.0202061
0.019955
0.0198488
0.0291655
0.0282004
0.0274306
0.0267465
0.0261157
0.025521
0.0249516
0.0244008
0.0238653
0.0233432
0.0228341
0.0223381
0.0218561
0.0213899
0.0209428
0.020521
0.0201358
0.0198082
0.0196023
0.0195719
0.0291417
0.0281216
0.0272693
0.0264871
0.0257557
0.0250666
0.0244137
0.0237925
0.0232003
0.0226353
0.0220962
0.0215825
0.0210943
0.020633
0.0202017
0.019807
0.0194618
0.0191901
0.0190595
0.0191308
0.0289352
0.0276345
0.0265155
0.0255052
0.0245917
0.0237638
0.023009
0.0223166
0.0216782
0.0210867
0.0205367
0.0200245
0.0195476
0.0191055
0.0186996
0.0183352
0.0180233
0.0177852
0.0176802
0.0177598
0.0261649
0.0235749
0.0218125
0.0204857
0.0194328
0.0185646
0.0178271
0.0171864
0.0166191
0.0161059
0.015637
0.0152055
0.0148063
0.0144363
0.0140941
0.0137803
0.0134994
0.0132613
0.0130985
0.0130389
0.00277451
0.00283554
0.00289306
0.00294844
0.00300138
0.00305152
0.00309881
0.00314332
0.00318516
0.00322447
0.00326121
0.00329533
0.00332672
0.0033552
0.00338045
0.00340197
0.0034189
0.00342976
0.00343241
0.00342296
0.00278212
0.00285347
0.00292303
0.00299009
0.00305422
0.00311508
0.00317247
0.00322633
0.0032767
0.00332361
0.00336733
0.00340777
0.00344484
0.0034784
0.0035082
0.00353386
0.00355478
0.00357003
0.00357832
0.00357788
0.0289711
0.0276866
0.0265781
0.0255744
0.0246642
0.023837
0.0230806
0.0223845
0.0217401
0.0211392
0.0205672
0.0200228
0.0195048
0.019013
0.0185484
0.0181128
0.0177117
0.0173552
0.017066
0.016856
0.033414
0.0335822
0.0336011
0.033443
0.0331447
0.0327488
0.0322871
0.0317823
0.0312514
0.0307057
0.0301522
0.0295994
0.0290547
0.0285256
0.0280201
0.0275496
0.0271314
0.0267928
0.0265845
0.0265325
0.0338587
0.0344781
0.0349005
0.0351096
0.0351379
0.0350264
0.0348091
0.0345123
0.0341569
0.0337597
0.0333344
0.0328925
0.0324443
0.0320005
0.0315736
0.0311805
0.0308467
0.0306121
0.0305497
0.0307052
0.0339376
0.0347082
0.0352897
0.0356491
0.0358097
0.0358087
0.0356797
0.0354511
0.0351464
0.0347849
0.0343827
0.033953
0.0335078
0.0330585
0.0326184
0.032205
0.031845
0.0315803
0.0314927
0.031641
0.0339481
0.0347542
0.0353927
0.0358242
0.036064
0.0361414
0.0360849
0.0359192
0.035666
0.0353436
0.0349675
0.0345511
0.0341058
0.0336429
0.0331747
0.032717
0.0322936
0.0319425
0.0317419
0.031751
0.0339471
0.034758
0.0354098
0.0358652
0.0361382
0.036256
0.0362441
0.0361247
0.0359167
0.0356367
0.0352983
0.0349133
0.034492
0.034044
0.03358
0.0331135
0.0326648
0.0322666
0.0319906
0.0318884
0.0339452
0.0347558
0.0354089
0.0358693
0.0361518
0.0362837
0.03629
0.0361924
0.036009
0.0357553
0.0354441
0.0350861
0.0346902
0.0342652
0.0338201
0.0333667
0.032923
0.0325178
0.0322178
0.0320678
0.0339439
0.0347538
0.0354063
0.035867
0.0361513
0.0362869
0.036299
0.0362092
0.0360358
0.035794
0.0354964
0.0351532
0.0347732
0.0343642
0.0339348
0.0334959
0.0330642
0.0326665
0.032367
0.0322059
0.0339432
0.0347529
0.0354049
0.0358652
0.0361497
0.0362859
0.0362994
0.0362118
0.0360414
0.0358035
0.0355108
0.0351733
0.0347998
0.034398
0.0339762
0.0335451
0.0331208
0.0327295
0.0324343
0.0322735
0.0339432
0.0347529
0.0354049
0.0358652
0.0361497
0.0362859
0.0362994
0.0362118
0.0360414
0.0358035
0.0355108
0.0351733
0.0347998
0.034398
0.0339762
0.0335451
0.0331208
0.0327295
0.0324343
0.0322735
0.0339439
0.0347538
0.0354063
0.035867
0.0361513
0.0362869
0.036299
0.0362092
0.0360358
0.035794
0.0354964
0.0351532
0.0347732
0.0343642
0.0339348
0.0334959
0.0330642
0.0326665
0.032367
0.0322059
0.0339452
0.0347558
0.0354089
0.0358693
0.0361518
0.0362837
0.03629
0.0361924
0.036009
0.0357553
0.0354441
0.0350861
0.0346902
0.0342652
0.03382
0.0333667
0.032923
0.0325178
0.0322178
0.0320678
0.0339471
0.034758
0.0354098
0.0358652
0.0361382
0.036256
0.0362441
0.0361247
0.0359167
0.0356367
0.0352983
0.0349133
0.034492
0.034044
0.03358
0.0331135
0.0326648
0.0322666
0.0319905
0.0318884
0.0339481
0.0347542
0.0353927
0.0358242
0.036064
0.0361414
0.0360849
0.0359192
0.035666
0.0353436
0.0349675
0.0345511
0.0341058
0.0336429
0.0331747
0.032717
0.0322936
0.0319425
0.0317419
0.031751
0.0339376
0.0347082
0.0352897
0.0356491
0.0358097
0.0358087
0.0356797
0.0354511
0.0351464
0.0347849
0.0343827
0.033953
0.0335077
0.0330585
0.0326183
0.032205
0.0318449
0.0315803
0.0314926
0.0316409
0.0338587
0.0344781
0.0349005
0.0351096
0.0351379
0.0350264
0.0348091
0.0345123
0.0341569
0.0337597
0.0333344
0.0328925
0.0324443
0.0320005
0.0315736
0.0311805
0.0308467
0.0306121
0.0305497
0.0307052
0.033414
0.0335822
0.033601
0.033443
0.0331447
0.0327488
0.0322871
0.0317823
0.0312514
0.0307057
0.0301522
0.0295994
0.0290547
0.0285256
0.0280201
0.0275496
0.0271314
0.0267929
0.0265845
0.0265325
0.0289711
0.0276866
0.0265781
0.0255744
0.0246642
0.023837
0.0230806
0.0223845
0.02174
0.0211392
0.0205672
0.0200228
0.0195049
0.0190131
0.0185484
0.0181129
0.0177117
0.0173553
0.0170661
0.0168561
0.00278212
0.00285347
0.00292303
0.00299009
0.00305422
0.00311508
0.00317247
0.00322633
0.0032767
0.00332361
0.00336732
0.00340776
0.00344484
0.0034784
0.00350819
0.00353385
0.00355478
0.00357002
0.00357832
0.00357787
0.00278437
0.00285738
0.00293061
0.00300302
0.00307356
0.00314141
0.00320601
0.00326704
0.00332429
0.00337767
0.00342713
0.00347262
0.00351411
0.00355152
0.00358473
0.00361384
0.00363854
0.0036583
0.00367256
0.0036807
0.0291951
0.0281951
0.0273574
0.0265857
0.0258625
0.0251803
0.0245336
0.0239182
0.0233315
0.0227715
0.0222363
0.0217249
0.0212368
0.0207728
0.0203368
0.0199171
0.0195202
0.0191576
0.0188466
0.018598
0.0339081
0.0345449
0.0349804
0.0351995
0.0352356
0.0351302
0.0349174
0.0346231
0.0342678
0.0338679
0.0334366
0.0329852
0.032524
0.0320619
0.0316022
0.0311586
0.0307499
0.0304029
0.0301565
0.0300351
0.0350998
0.0354157
0.0358424
0.0362821
0.0366771
0.0370032
0.0372498
0.0374127
0.0374928
0.0374947
0.0374259
0.0372951
0.0371123
0.0368904
0.0366451
0.0363972
0.0361758
0.036022
0.0359956
0.0361392
0.0353247
0.0357924
0.0362726
0.0367297
0.0371393
0.0374916
0.0377817
0.0380062
0.0381632
0.0382533
0.0382791
0.0382457
0.0381606
0.0380341
0.0378806
0.0377213
0.0375875
0.0375259
0.0376087
0.0378932
0.0353719
0.0359385
0.0365104
0.0370421
0.0375088
0.0379014
0.0382164
0.0384528
0.0386112
0.0386938
0.0387048
0.0386496
0.0385358
0.038373
0.0381748
0.0379607
0.0377608
0.0376207
0.0376161
0.0378139
0.0353766
0.0359682
0.0365782
0.037157
0.037676
0.0381214
0.0384861
0.0387657
0.0389588
0.0390665
0.0390919
0.0390397
0.0389164
0.0387306
0.0384941
0.038224
0.0379468
0.0377035
0.0375661
0.0376015
0.0353747
0.03597
0.0365892
0.0371837
0.0377248
0.0381979
0.0385943
0.0389078
0.0391351
0.0392754
0.0393304
0.0393029
0.0391981
0.0390224
0.0387858
0.0385025
0.0381955
0.0379006
0.0376843
0.0376085
0.0353729
0.0359682
0.0365887
0.0371865
0.0377338
0.0382165
0.0386259
0.0389555
0.0392015
0.0393624
0.0394388
0.0394328
0.0393482
0.0391905
0.0389678
0.0386928
0.0383856
0.0380787
0.0378342
0.0377093
0.035372
0.0359671
0.0365874
0.0371856
0.0377341
0.0382192
0.0386324
0.0389674
0.0392203
0.0393894
0.0394753
0.0394796
0.0394058
0.0392587
0.0390459
0.0387792
0.0384774
0.0381715
0.0379214
0.0377817
0.035372
0.0359671
0.0365874
0.0371856
0.0377341
0.0382192
0.0386324
0.0389674
0.0392203
0.0393894
0.0394753
0.0394796
0.0394058
0.0392587
0.0390459
0.0387792
0.0384774
0.0381715
0.0379214
0.0377817
0.0353729
0.0359682
0.0365886
0.0371865
0.0377338
0.0382165
0.0386259
0.0389555
0.0392015
0.0393624
0.0394388
0.0394328
0.0393482
0.0391905
0.0389678
0.0386927
0.0383856
0.0380787
0.0378342
0.0377093
0.0353747
0.03597
0.0365892
0.0371837
0.0377248
0.0381979
0.0385943
0.0389078
0.039135
0.0392754
0.0393303
0.0393029
0.039198
0.0390224
0.0387858
0.0385025
0.0381955
0.0379006
0.0376843
0.0376085
0.0353766
0.0359682
0.0365782
0.037157
0.037676
0.0381214
0.0384861
0.0387657
0.0389588
0.0390665
0.0390919
0.0390397
0.0389164
0.0387306
0.0384941
0.038224
0.0379468
0.0377035
0.037566
0.0376015
0.0353719
0.0359384
0.0365104
0.0370421
0.0375088
0.0379014
0.0382164
0.0384528
0.0386112
0.0386938
0.0387047
0.0386496
0.0385358
0.038373
0.0381748
0.0379607
0.0377607
0.0376206
0.037616
0.0378138
0.0353247
0.0357924
0.0362726
0.0367297
0.0371393
0.0374915
0.0377817
0.0380062
0.0381632
0.0382532
0.0382791
0.0382457
0.0381606
0.038034
0.0378806
0.0377212
0.0375874
0.0375259
0.0376086
0.0378932
0.0350998
0.0354157
0.0358423
0.036282
0.0366771
0.0370032
0.0372498
0.0374127
0.0374927
0.0374946
0.0374259
0.0372951
0.0371122
0.0368904
0.0366451
0.0363972
0.0361758
0.036022
0.0359956
0.0361392
0.0339081
0.0345449
0.0349804
0.0351995
0.0352356
0.0351302
0.0349174
0.034623
0.0342677
0.0338679
0.0334365
0.0329851
0.032524
0.0320618
0.0316022
0.0311586
0.0307499
0.0304029
0.0301565
0.0300351
0.0291951
0.0281951
0.0273574
0.0265857
0.0258624
0.0251803
0.0245335
0.0239182
0.0233315
0.0227715
0.0222363
0.0217249
0.0212367
0.0207728
0.0203368
0.0199171
0.0195202
0.0191576
0.0188466
0.018598
0.00278437
0.00285738
0.00293061
0.00300302
0.00307356
0.00314141
0.00320601
0.00326703
0.00332429
0.00337767
0.00342713
0.00347262
0.00351411
0.00355152
0.00358473
0.00361384
0.00363853
0.0036583
0.00367256
0.00368069
0.00278589
0.00285927
0.00293367
0.00300801
0.00308099
0.00315167
0.00321942
0.00328384
0.00334469
0.00340179
0.00345504
0.00350438
0.00354977
0.00359114
0.00362842
0.00366181
0.00369113
0.0037162
0.00373693
0.0037533
0.029237
0.0282933
0.0275406
0.0268703
0.0262517
0.0256689
0.0251118
0.0245749
0.024055
0.0235511
0.0230627
0.0225905
0.0221355
0.0216997
0.0212866
0.02089
0.0205181
0.0201803
0.0198889
0.019651
0.0340162
0.0348157
0.0354249
0.0358115
0.0359996
0.0360267
0.0359269
0.0357285
0.0354549
0.0351255
0.0347561
0.0343603
0.0339497
0.0335362
0.0331307
0.0327398
0.0323824
0.0320822
0.0318684
0.0317593
0.0353817
0.0358745
0.0363812
0.0368668
0.0373072
0.0376924
0.0380175
0.0382788
0.0384741
0.0386038
0.0386707
0.03868
0.0386396
0.0385588
0.0384502
0.0383332
0.0382346
0.0381912
0.0382492
0.0384425
0.0362866
0.0363867
0.0365983
0.0368839
0.0372056
0.0375405
0.0378741
0.0381946
0.0384913
0.0387556
0.0389812
0.0391648
0.0393064
0.0394104
0.0394866
0.0395524
0.0396356
0.0397773
0.0400336
0.0404503
0.0364649
0.0366973
0.0369491
0.03722
0.0374976
0.0377735
0.0380419
0.038297
0.0385323
0.0387413
0.0389187
0.0390609
0.039167
0.0392397
0.039287
0.0393243
0.0393783
0.0394903
0.0397208
0.040125
0.036497
0.0368064
0.0371301
0.0374585
0.037779
0.038083
0.0383645
0.0386183
0.0388391
0.0390215
0.0391612
0.0392553
0.0393028
0.039306
0.0392718
0.0392138
0.0391563
0.0391385
0.0392206
0.0394627
0.0364987
0.0368275
0.03718
0.037543
0.0379014
0.0382441
0.0385623
0.0388482
0.0390946
0.0392947
0.0394432
0.0395359
0.0395707
0.0395485
0.0394743
0.0393592
0.0392244
0.0391049
0.0390574
0.0391419
0.0364965
0.0368286
0.0371883
0.0375628
0.037937
0.0382994
0.0386404
0.0389509
0.0392222
0.0394463
0.0396162
0.0397264
0.0397734
0.0397563
0.0396782
0.0395481
0.039384
0.0392172
0.0391007
0.0390917
0.0364952
0.0368275
0.0371885
0.0375657
0.0379442
0.038313
0.0386625
0.0389834
0.0392666
0.0395035
0.0396864
0.0398091
0.0398672
0.039859
0.0397864
0.0396569
0.0394872
0.0393061
0.0391645
0.0391175
0.0364952
0.0368275
0.0371885
0.0375657
0.0379442
0.038313
0.0386625
0.0389834
0.0392666
0.0395035
0.0396863
0.0398091
0.0398672
0.039859
0.0397864
0.0396569
0.0394872
0.0393061
0.0391645
0.0391175
0.0364965
0.0368286
0.0371883
0.0375628
0.037937
0.0382994
0.0386404
0.0389509
0.0392222
0.0394463
0.0396162
0.0397264
0.0397734
0.0397563
0.0396782
0.0395481
0.039384
0.0392172
0.0391007
0.0390917
0.0364987
0.0368275
0.03718
0.0375429
0.0379014
0.0382441
0.0385623
0.0388482
0.0390946
0.0392947
0.0394432
0.0395359
0.0395707
0.0395485
0.0394743
0.0393592
0.0392244
0.0391048
0.0390574
0.0391419
0.036497
0.0368064
0.0371301
0.0374585
0.037779
0.0380829
0.0383645
0.0386183
0.0388391
0.0390215
0.0391612
0.0392553
0.0393028
0.039306
0.0392717
0.0392137
0.0391563
0.0391384
0.0392205
0.0394626
0.0364649
0.0366973
0.0369491
0.03722
0.0374976
0.0377735
0.0380419
0.038297
0.0385323
0.0387413
0.0389187
0.0390609
0.039167
0.0392397
0.039287
0.0393243
0.0393782
0.0394902
0.0397207
0.0401249
0.0362866
0.0363867
0.0365983
0.0368839
0.0372056
0.0375405
0.0378741
0.0381946
0.0384913
0.0387556
0.0389812
0.0391648
0.0393064
0.0394104
0.0394866
0.0395523
0.0396355
0.0397772
0.0400335
0.0404502
0.0353817
0.0358745
0.0363812
0.0368668
0.0373071
0.0376923
0.0380175
0.0382787
0.0384741
0.0386038
0.0386706
0.03868
0.0386396
0.0385588
0.0384502
0.0383332
0.0382346
0.0381912
0.0382492
0.0384425
0.0340162
0.0348157
0.0354249
0.0358115
0.0359996
0.0360267
0.0359269
0.0357285
0.0354549
0.0351254
0.0347561
0.0343602
0.0339496
0.0335362
0.0331306
0.0327398
0.0323824
0.0320822
0.0318684
0.0317593
0.029237
0.0282933
0.0275405
0.0268703
0.0262517
0.0256688
0.0251118
0.0245749
0.024055
0.0235511
0.0230627
0.0225905
0.0221355
0.0216997
0.0212865
0.02089
0.0205181
0.0201803
0.0198889
0.019651
0.00278589
0.00285927
0.00293367
0.00300801
0.00308099
0.00315167
0.00321942
0.00328384
0.00334469
0.00340179
0.00345504
0.00350438
0.00354976
0.00359113
0.00362842
0.00366181
0.00369113
0.0037162
0.00373692
0.00375329
0.00278756
0.00286101
0.00293566
0.00301053
0.00308435
0.0031562
0.00322548
0.0032918
0.00335487
0.00341449
0.0034705
0.00352281
0.00357136
0.00361609
0.00365698
0.00369399
0.00372719
0.00375693
0.00378337
0.00380681
0.0292586
0.0283213
0.0275855
0.0269441
0.0263635
0.0258251
0.0253164
0.0248295
0.0243599
0.0239048
0.0234634
0.0230355
0.0226224
0.0222259
0.0218495
0.0214976
0.0211764
0.0208826
0.020627
0.0204167
0.0340521
0.0348903
0.0355615
0.0360275
0.0363042
0.0364221
0.0364105
0.036295
0.0360978
0.0358383
0.035533
0.0351963
0.0348411
0.03448
0.034126
0.0337946
0.0334977
0.0332522
0.0330815
0.033001
0.0354626
0.0360647
0.0366774
0.0372559
0.0377764
0.0382304
0.0386155
0.0389311
0.0391784
0.0393604
0.0394821
0.0395504
0.0395741
0.0395647
0.0395368
0.0395074
0.0394995
0.0395447
0.0396794
0.039931
0.0365235
0.0367779
0.0370536
0.037352
0.0376623
0.0379773
0.0382923
0.0386026
0.0389023
0.039186
0.0394492
0.0396891
0.039906
0.0401036
0.0402902
0.0404809
0.0406996
0.0409809
0.0413678
0.0418964
0.0373231
0.0373214
0.0373937
0.0375233
0.0376874
0.0378715
0.0380681
0.0382722
0.038479
0.0386839
0.0388827
0.0390727
0.0392528
0.0394253
0.0395969
0.0397813
0.0400015
0.0402924
0.0407011
0.0412707
0.0374703
0.0375904
0.0377138
0.0378491
0.0379916
0.0381365
0.0382809
0.038423
0.0385598
0.0386883
0.0388052
0.0389079
0.0389958
0.0390704
0.0391379
0.0392107
0.0393107
0.0394723
0.0397438
0.0401738
0.0374936
0.0376768
0.0378601
0.0380442
0.0382243
0.0383956
0.0385549
0.0387
0.0388284
0.0389369
0.0390226
0.0390827
0.039116
0.0391233
0.0391094
0.0390851
0.0390703
0.039097
0.0392124
0.0394676
0.0374942
0.0376933
0.0378997
0.038111
0.0383206
0.0385219
0.0387097
0.0388799
0.0390281
0.0391501
0.0392418
0.0392994
0.0393205
0.0393047
0.0392554
0.0391814
0.0391004
0.0390419
0.0390512
0.0391796
0.0374927
0.0376946
0.0379069
0.0381269
0.0383478
0.0385627
0.0387658
0.0389518
0.0391153
0.0392512
0.0393541
0.0394195
0.039444
0.0394261
0.0393682
0.0392779
0.0391714
0.0390767
0.0390375
0.0391045
0.0374927
0.0376946
0.0379069
0.0381269
0.0383478
0.0385627
0.0387658
0.0389518
0.0391153
0.0392512
0.0393541
0.0394195
0.039444
0.0394261
0.0393682
0.0392779
0.0391714
0.0390767
0.0390374
0.0391045
0.0374942
0.0376933
0.0378997
0.038111
0.0383206
0.0385219
0.0387097
0.0388799
0.0390281
0.0391501
0.0392418
0.0392994
0.0393205
0.0393047
0.0392553
0.0391814
0.0391004
0.0390419
0.0390512
0.0391795
0.0374936
0.0376768
0.0378601
0.0380442
0.0382243
0.0383956
0.0385549
0.0387
0.0388283
0.0389369
0.0390226
0.0390827
0.0391159
0.0391232
0.0391093
0.0390851
0.0390702
0.0390969
0.0392123
0.0394676
0.0374703
0.0375904
0.0377138
0.0378491
0.0379916
0.0381364
0.0382809
0.038423
0.0385598
0.0386883
0.0388051
0.0389079
0.0389957
0.0390703
0.0391378
0.0392106
0.0393107
0.0394722
0.0397437
0.0401736
0.0373231
0.0373214
0.0373937
0.0375233
0.0376874
0.0378715
0.0380681
0.0382722
0.038479
0.0386839
0.0388827
0.0390726
0.0392528
0.0394252
0.0395969
0.0397812
0.0400014
0.0402923
0.040701
0.0412705
0.0365235
0.0367779
0.0370536
0.037352
0.0376623
0.0379772
0.0382923
0.0386025
0.0389023
0.039186
0.0394491
0.039689
0.0399059
0.0401035
0.0402901
0.0404808
0.0406995
0.0409807
0.0413677
0.0418962
0.0354626
0.0360647
0.0366774
0.0372559
0.0377763
0.0382304
0.0386154
0.0389311
0.0391783
0.0393604
0.0394821
0.0395504
0.0395741
0.0395646
0.0395367
0.0395073
0.0394994
0.0395446
0.0396793
0.0399309
0.0340521
0.0348903
0.0355615
0.0360274
0.0363042
0.0364221
0.0364105
0.036295
0.0360978
0.0358383
0.035533
0.0351962
0.034841
0.0344799
0.034126
0.0337945
0.0334977
0.0332522
0.0330815
0.033001
0.0292585
0.0283213
0.0275855
0.0269441
0.0263635
0.0258251
0.0253164
0.0248295
0.0243599
0.0239048
0.0234634
0.0230355
0.0226223
0.0222259
0.0218494
0.0214976
0.0211763
0.0208826
0.020627
0.0204167
0.00278756
0.00286101
0.00293566
0.00301053
0.00308435
0.0031562
0.00322548
0.0032918
0.00335487
0.00341449
0.0034705
0.00352281
0.00357136
0.00361609
0.00365697
0.00369399
0.00372719
0.00375693
0.00378337
0.0038068
0.0027895
0.002863
0.0029378
0.00301296
0.00308721
0.00315966
0.00322973
0.00329704
0.00336131
0.00342235
0.00348003
0.00353429
0.00358506
0.00363235
0.00367618
0.00371658
0.00375365
0.00378774
0.00381932
0.00384882
0.02928
0.0283423
0.0276089
0.0269749
0.0264072
0.0258866
0.0254001
0.0249391
0.024498
0.0240738
0.0236646
0.0232701
0.0228908
0.0225286
0.0221866
0.0218691
0.0215822
0.0213279
0.02111
0.0209352
0.0340781
0.0349222
0.0356091
0.0361025
0.0364174
0.0365821
0.0366232
0.0365642
0.0364253
0.0362247
0.0359779
0.0356988
0.0354001
0.0350942
0.0347941
0.0345142
0.0342711
0.0340779
0.0339512
0.0339058
0.0354972
0.0361268
0.0367827
0.0374163
0.0380001
0.038522
0.0389761
0.0393599
0.0396736
0.0399203
0.0401053
0.0402365
0.0403234
0.0403783
0.0404163
0.0404562
0.0405202
0.0406333
0.0408262
0.0411234
0.0365929
0.0369335
0.0372937
0.0376664
0.0380411
0.0384114
0.0387738
0.0391255
0.0394632
0.0397844
0.0400871
0.0403714
0.0406396
0.0408969
0.041153
0.0414228
0.0417276
0.042097
0.0425666
0.0431669
0.0375301
0.0376694
0.0378136
0.0379732
0.0381449
0.0383254
0.0385136
0.0387088
0.0389101
0.039116
0.0393252
0.0395374
0.0397538
0.0399783
0.0402189
0.0404891
0.0408098
0.0412113
0.0417321
0.0424081
0.0382395
0.0381943
0.038201
0.0382497
0.0383244
0.038414
0.0385124
0.0386162
0.0387235
0.0388325
0.038942
0.039052
0.0391638
0.0392815
0.039413
0.0395714
0.0397779
0.0400632
0.040468
0.0410333
0.0383641
0.0384278
0.038487
0.0385515
0.0386201
0.0386892
0.0387563
0.0388197
0.0388781
0.0389301
0.0389743
0.0390103
0.0390391
0.0390638
0.0390913
0.0391341
0.0392123
0.039356
0.0396062
0.0400075
0.0383824
0.0384993
0.038609
0.038715
0.0388159
0.0389083
0.0389894
0.0390572
0.0391104
0.0391475
0.0391673
0.0391689
0.0391531
0.0391223
0.0390827
0.0390459
0.0390308
0.0390669
0.0391949
0.0394614
0.0383833
0.0385133
0.0386412
0.0387676
0.0388897
0.0390026
0.0391019
0.0391843
0.0392472
0.0392885
0.0393066
0.0393002
0.0392695
0.0392167
0.0391477
0.0390733
0.0390121
0.0389929
0.0390564
0.03925
0.0383833
0.0385133
0.0386412
0.0387676
0.0388897
0.0390026
0.0391019
0.0391843
0.0392472
0.0392885
0.0393066
0.0393001
0.0392695
0.0392167
0.0391477
0.0390733
0.0390121
0.0389929
0.0390564
0.03925
0.0383824
0.0384993
0.038609
0.038715
0.0388159
0.0389083
0.0389894
0.0390572
0.0391104
0.0391475
0.0391673
0.0391689
0.039153
0.0391222
0.0390827
0.0390458
0.0390308
0.0390669
0.0391949
0.0394614
0.0383641
0.0384278
0.038487
0.0385515
0.0386201
0.0386892
0.0387563
0.0388197
0.0388781
0.0389301
0.0389743
0.0390103
0.0390391
0.0390637
0.0390913
0.0391341
0.0392122
0.0393559
0.0396061
0.0400074
0.0382395
0.0381943
0.038201
0.0382497
0.0383244
0.038414
0.0385123
0.0386162
0.0387235
0.0388325
0.038942
0.0390519
0.0391638
0.0392815
0.0394129
0.0395713
0.0397778
0.0400631
0.0404678
0.0410332
0.0375301
0.0376694
0.0378136
0.0379731
0.0381449
0.0383254
0.0385135
0.0387088
0.03891
0.0391159
0.0393252
0.0395374
0.0397537
0.0399782
0.0402188
0.040489
0.0408097
0.0412112
0.0417319
0.0424079
0.0365929
0.0369335
0.0372937
0.0376664
0.0380411
0.0384114
0.0387738
0.0391254
0.0394632
0.0397843
0.0400871
0.0403714
0.0406395
0.0408969
0.0411529
0.0414227
0.0417275
0.0420969
0.0425664
0.0431667
0.0354972
0.0361268
0.0367827
0.0374163
0.0380001
0.0385219
0.0389761
0.0393599
0.0396736
0.0399202
0.0401053
0.0402364
0.0403233
0.0403782
0.0404162
0.0404561
0.0405201
0.0406332
0.040826
0.0411233
0.0340781
0.0349222
0.0356091
0.0361025
0.0364174
0.0365821
0.0366232
0.0365641
0.0364253
0.0362247
0.0359779
0.0356987
0.0354
0.0350942
0.0347941
0.0345141
0.034271
0.0340778
0.0339512
0.0339057
0.02928
0.0283423
0.0276089
0.0269749
0.0264072
0.0258866
0.0254001
0.0249391
0.024498
0.0240738
0.0236646
0.0232701
0.0228908
0.0225286
0.0221865
0.021869
0.0215822
0.0213279
0.02111
0.0209352
0.0027895
0.002863
0.0029378
0.00301296
0.00308721
0.00315966
0.00322973
0.00329704
0.00336131
0.00342235
0.00348003
0.00353428
0.00358506
0.00363235
0.00367618
0.00371658
0.00375364
0.00378774
0.00381932
0.00384882
0.00279167
0.00286524
0.00294019
0.00301559
0.00309019
0.0031631
0.00323376
0.00330181
0.003367
0.00342916
0.00348819
0.00354403
0.00359668
0.00364616
0.00369252
0.00373588
0.00377637
0.00381423
0.00385004
0.00388443
0.0293033
0.0283646
0.0276312
0.026999
0.0264355
0.0259217
0.0254446
0.0249956
0.0245692
0.0241622
0.0237728
0.0234003
0.0230454
0.0227095
0.0223955
0.0221074
0.0218508
0.0216326
0.021453
0.0213158
0.0341053
0.03495
0.0356402
0.0361414
0.0364696
0.0366532
0.0367186
0.0366886
0.0365832
0.0364197
0.0362132
0.0359769
0.0357231
0.0354636
0.0352106
0.0349774
0.0347791
0.0346323
0.0345501
0.0345436
0.035526
0.0361602
0.0368275
0.0374807
0.0380925
0.03865
0.0391463
0.0395774
0.0399426
0.0402439
0.0404861
0.0406763
0.040824
0.040941
0.0410417
0.0411438
0.0412688
0.0414422
0.0416868
0.0420272
0.0366279
0.03699
0.0373834
0.0377979
0.0382209
0.0386439
0.0390613
0.039469
0.039863
0.0402408
0.0406008
0.0409438
0.0412727
0.0415936
0.0419164
0.0422557
0.0426315
0.0430698
0.0436012
0.0442557