/*--------------------------------*- C++ -*----------------------------------*\
  =========                 |
  \\      /  F ield         | OpenFOAM: The Open Source CFD Toolbox
   \\    /   O peration     | Website:  https://openfoam.org
    \\  /    A nd           | Version:  10
     \\/     M anipulation  |
\*---------------------------------------------------------------------------*/
FoamFile
{
    format      ascii;
    class       volScalarField;
    location    "400";
    object      epsilon;
}
// * * * * * * * * * * * * * * * * * * * * * * * * * * * * * * * * * * * * * //

dimensions      [0 2 -3 0 0 0 0];

internalField   nonuniform List<scalar> 
112000
(
3.18321e+06
3.29274e+06
3.40823e+06
3.52863e+06
3.65209e+06
3.77784e+06
3.90587e+06
4.03635e+06
4.16958e+06
4.30591e+06
4.44588e+06
4.59014e+06
4.73955e+06
4.89514e+06
5.0582e+06
5.23023e+06
5.41298e+06
5.60808e+06
5.82261e+06
6.00538e+06
3.28986e+06
3.51782e+06
3.74782e+06
3.97978e+06
4.21241e+06
4.44499e+06
4.67738e+06
4.90963e+06
5.14189e+06
5.37437e+06
5.60749e+06
5.84188e+06
6.07842e+06
6.31828e+06
6.56302e+06
6.81473e+06
7.07644e+06
7.35249e+06
7.66054e+06
7.94983e+06
3.30359e+06
3.56512e+06
3.8384e+06
4.11903e+06
4.40363e+06
4.68987e+06
4.97624e+06
5.26182e+06
5.54608e+06
5.82882e+06
6.11012e+06
6.39036e+06
6.67023e+06
6.95073e+06
7.23327e+06
7.5198e+06
7.81322e+06
8.1177e+06
8.45294e+06
8.76082e+06
3.30642e+06
3.57704e+06
3.86708e+06
4.17136e+06
4.48539e+06
4.80562e+06
5.12925e+06
5.4541e+06
5.77854e+06
6.10141e+06
6.42202e+06
6.7401e+06
7.05581e+06
7.36971e+06
7.6828e+06
7.99661e+06
8.31345e+06
8.63643e+06
8.98445e+06
9.2883e+06
3.30664e+06
3.57855e+06
3.87217e+06
4.18261e+06
4.50547e+06
4.83723e+06
5.17502e+06
5.51644e+06
5.85956e+06
6.20289e+06
6.5454e+06
6.8865e+06
7.22602e+06
7.56423e+06
7.90183e+06
8.24004e+06
8.58073e+06
8.92622e+06
9.29456e+06
9.60811e+06
3.30658e+06
3.57841e+06
3.87246e+06
4.18424e+06
4.50968e+06
4.84557e+06
5.18931e+06
5.53863e+06
5.89159e+06
6.24664e+06
6.60258e+06
6.95862e+06
7.31438e+06
7.66991e+06
8.02569e+06
8.38271e+06
8.74265e+06
9.10745e+06
9.49497e+06
9.82187e+06
3.30654e+06
3.57823e+06
3.87217e+06
4.18402e+06
4.50977e+06
4.84633e+06
5.19121e+06
5.54228e+06
5.89771e+06
6.25604e+06
6.61618e+06
6.97741e+06
7.33943e+06
7.70235e+06
8.06671e+06
8.43358e+06
8.80472e+06
9.18212e+06
9.584e+06
9.92466e+06
3.30653e+06
3.57812e+06
3.87194e+06
4.18369e+06
4.50939e+06
4.84598e+06
5.19105e+06
5.54252e+06
5.89867e+06
6.2581e+06
6.61979e+06
6.9831e+06
7.34778e+06
7.71398e+06
8.08233e+06
8.45396e+06
8.83073e+06
9.21476e+06
9.62468e+06
9.97369e+06
3.30652e+06
3.57807e+06
3.87181e+06
4.18348e+06
4.5091e+06
4.84562e+06
5.19061e+06
5.54205e+06
5.89821e+06
6.25774e+06
6.61966e+06
6.98334e+06
7.3486e+06
7.71565e+06
8.08517e+06
8.45838e+06
8.83723e+06
9.22401e+06
9.63762e+06
9.99106e+06
3.30652e+06
3.57805e+06
3.87176e+06
4.18339e+06
4.50896e+06
4.84543e+06
5.19037e+06
5.54175e+06
5.89788e+06
6.25739e+06
6.61932e+06
6.98308e+06
7.34848e+06
7.71576e+06
8.08563e+06
8.45935e+06
8.8389e+06
9.22664e+06
9.64161e+06
9.99672e+06
3.30652e+06
3.57805e+06
3.87176e+06
4.18339e+06
4.50896e+06
4.84543e+06
5.19037e+06
5.54175e+06
5.89788e+06
6.25739e+06
6.61932e+06
6.98308e+06
7.34847e+06
7.71576e+06
8.08563e+06
8.45934e+06
8.8389e+06
9.22664e+06
9.6416e+06
9.99672e+06
3.30652e+06
3.57807e+06
3.87181e+06
4.18348e+06
4.5091e+06
4.84562e+06
5.19061e+06
5.54205e+06
5.89821e+06
6.25774e+06
6.61966e+06
6.98334e+06
7.3486e+06
7.71565e+06
8.08517e+06
8.45838e+06
8.83723e+06
9.22401e+06
9.63762e+06
9.99106e+06
3.30653e+06
3.57812e+06
3.87194e+06
4.18369e+06
4.50939e+06
4.84598e+06
5.19105e+06
5.54252e+06
5.89867e+06
6.2581e+06
6.61979e+06
6.9831e+06
7.34778e+06
7.71398e+06
8.08233e+06
8.45396e+06
8.83072e+06
9.21476e+06
9.62467e+06
9.97369e+06
3.30654e+06
3.57823e+06
3.87217e+06
4.18402e+06
4.50977e+06
4.84633e+06
5.19121e+06
5.54228e+06
5.89771e+06
6.25604e+06
6.61617e+06
6.97741e+06
7.33943e+06
7.70234e+06
8.06671e+06
8.43358e+06
8.80472e+06
9.18212e+06
9.584e+06
9.92466e+06
3.30658e+06
3.57841e+06
3.87246e+06
4.18424e+06
4.50968e+06
4.84557e+06
5.18931e+06
5.53862e+06
5.89159e+06
6.24664e+06
6.60258e+06
6.95862e+06
7.31438e+06
7.6699e+06
8.02568e+06
8.38271e+06
8.74265e+06
9.10744e+06
9.49496e+06
9.82187e+06
3.30664e+06
3.57855e+06
3.87217e+06
4.18261e+06
4.50547e+06
4.83723e+06
5.17502e+06
5.51644e+06
5.85956e+06
6.20289e+06
6.5454e+06
6.8865e+06
7.22602e+06
7.56423e+06
7.90183e+06
8.24003e+06
8.58073e+06
8.92622e+06
9.29455e+06
9.60811e+06
3.30642e+06
3.57704e+06
3.86708e+06
4.17136e+06
4.48539e+06
4.80562e+06
5.12925e+06
5.4541e+06
5.77854e+06
6.10141e+06
6.42202e+06
6.7401e+06
7.0558e+06
7.3697e+06
7.6828e+06
7.9966e+06
8.31344e+06
8.63643e+06
8.98444e+06
9.28829e+06
3.30359e+06
3.56512e+06
3.8384e+06
4.11903e+06
4.40363e+06
4.68987e+06
4.97624e+06
5.26182e+06
5.54608e+06
5.82882e+06
6.11011e+06
6.39036e+06
6.67023e+06
6.95073e+06
7.23327e+06
7.5198e+06
7.81322e+06
8.1177e+06
8.45293e+06
8.76082e+06
3.28986e+06
3.51782e+06
3.74782e+06
3.97978e+06
4.2124e+06
4.44499e+06
4.67738e+06
4.90963e+06
5.14189e+06
5.37437e+06
5.60749e+06
5.84188e+06
6.07842e+06
6.31828e+06
6.56302e+06
6.81473e+06
7.07645e+06
7.35249e+06
7.66055e+06
7.94983e+06
3.18321e+06
3.29274e+06
3.40823e+06
3.52863e+06
3.65208e+06
3.77784e+06
3.90586e+06
4.03635e+06
4.16957e+06
4.30591e+06
4.44587e+06
4.59013e+06
4.73954e+06
4.89514e+06
5.05819e+06
5.23022e+06
5.41297e+06
5.60807e+06
5.8226e+06
6.00536e+06
3.28859e+06
3.51322e+06
3.73789e+06
3.96248e+06
4.18566e+06
4.40668e+06
4.62529e+06
4.84145e+06
5.05538e+06
5.26787e+06
5.47918e+06
5.68982e+06
5.90056e+06
6.11246e+06
6.32688e+06
6.54553e+06
6.77044e+06
7.00365e+06
7.25071e+06
7.49191e+06
780685
1.02219e+06
1.23444e+06
1.42771e+06
1.60744e+06
1.77557e+06
1.93292e+06
2.08001e+06
2.21731e+06
2.3455e+06
2.4648e+06
2.57558e+06
2.67836e+06
2.77403e+06
2.86402e+06
2.95083e+06
3.03893e+06
3.13642e+06
3.2683e+06
3.44722e+06
732269
945373
1.13546e+06
1.30754e+06
1.4657e+06
1.61199e+06
1.74738e+06
1.87248e+06
1.98768e+06
2.09326e+06
2.18942e+06
2.27635e+06
2.3543e+06
2.4237e+06
2.48539e+06
2.54094e+06
2.59347e+06
2.64891e+06
2.72907e+06
2.8441e+06
737548
961196
1.16566e+06
1.35351e+06
1.5271e+06
1.68753e+06
1.83521e+06
1.9704e+06
2.09327e+06
2.20399e+06
2.30269e+06
2.38949e+06
2.46452e+06
2.52805e+06
2.58055e+06
2.62306e+06
2.65775e+06
2.68875e+06
2.73534e+06
2.80194e+06
739411
966074
1.17685e+06
1.37445e+06
1.56043e+06
1.73504e+06
1.89797e+06
2.04877e+06
2.18705e+06
2.31244e+06
2.42466e+06
2.52342e+06
2.60854e+06
2.67992e+06
2.73764e+06
2.78222e+06
2.81504e+06
2.83887e+06
2.87131e+06
2.91077e+06
739853
966617
1.17818e+06
1.37782e+06
1.56722e+06
1.74661e+06
1.91561e+06
2.07368e+06
2.22024e+06
2.35471e+06
2.47651e+06
2.5851e+06
2.67998e+06
2.76072e+06
2.82706e+06
2.87908e+06
2.91762e+06
2.94451e+06
2.97646e+06
3.00755e+06
740069
966763
1.17829e+06
1.37826e+06
1.56854e+06
1.74942e+06
1.9206e+06
2.08156e+06
2.23173e+06
2.37049e+06
2.49722e+06
2.61127e+06
2.71205e+06
2.79899e+06
2.87167e+06
2.92999e+06
2.97451e+06
3.0066e+06
3.04268e+06
3.07413e+06
740197
966859
1.17827e+06
1.37817e+06
1.56851e+06
1.74964e+06
1.92126e+06
2.08292e+06
2.23408e+06
2.37417e+06
2.50257e+06
2.61867e+06
2.72186e+06
2.81157e+06
2.88736e+06
2.94906e+06
2.99717e+06
3.03293e+06
3.07276e+06
3.10675e+06
740271
966927
1.17827e+06
1.37809e+06
1.56839e+06
1.74954e+06
1.92127e+06
2.08311e+06
2.23457e+06
2.37509e+06
2.50409e+06
2.62096e+06
2.72511e+06
2.81598e+06
2.89315e+06
2.95646e+06
3.00641e+06
3.04421e+06
3.0864e+06
3.12248e+06
740304
966962
1.17827e+06
1.37805e+06
1.56833e+06
1.74947e+06
1.9212e+06
2.08307e+06
2.23458e+06
2.3752e+06
2.50433e+06
2.62139e+06
2.7258e+06
2.81702e+06
2.89463e+06
2.95848e+06
3.0091e+06
3.0477e+06
3.0909e+06
3.12801e+06
740304
966962
1.17827e+06
1.37805e+06
1.56832e+06
1.74947e+06
1.9212e+06
2.08307e+06
2.23458e+06
2.3752e+06
2.50433e+06
2.62139e+06
2.7258e+06
2.81702e+06
2.89463e+06
2.95848e+06
3.0091e+06
3.0477e+06
3.0909e+06
3.12801e+06
740271
966927
1.17827e+06
1.37809e+06
1.56839e+06
1.74954e+06
1.92127e+06
2.08311e+06
2.23457e+06
2.37509e+06
2.50409e+06
2.62096e+06
2.72511e+06
2.81598e+06
2.89315e+06
2.95646e+06
3.00641e+06
3.04421e+06
3.0864e+06
3.12248e+06
740197
966859
1.17827e+06
1.37817e+06
1.56851e+06
1.74964e+06
1.92126e+06
2.08292e+06
2.23408e+06
2.37417e+06
2.50257e+06
2.61867e+06
2.72186e+06
2.81157e+06
2.88736e+06
2.94906e+06
2.99717e+06
3.03293e+06
3.07276e+06
3.10675e+06
740069
966763
1.17829e+06
1.37826e+06
1.56854e+06
1.74942e+06
1.9206e+06
2.08156e+06
2.23173e+06
2.37049e+06
2.49722e+06
2.61127e+06
2.71205e+06
2.79898e+06
2.87167e+06
2.92999e+06
2.97451e+06
3.0066e+06
3.04268e+06
3.07413e+06
739853
966617
1.17818e+06
1.37782e+06
1.56722e+06
1.74661e+06
1.91561e+06
2.07368e+06
2.22024e+06
2.35471e+06
2.47651e+06
2.5851e+06
2.67998e+06
2.76072e+06
2.82706e+06
2.87908e+06
2.91763e+06
2.94451e+06
2.97647e+06
3.00755e+06
739411
966074
1.17685e+06
1.37445e+06
1.56043e+06
1.73504e+06
1.89797e+06
2.04877e+06
2.18705e+06
2.31244e+06
2.42465e+06
2.52342e+06
2.60854e+06
2.67992e+06
2.73764e+06
2.78222e+06
2.81504e+06
2.83887e+06
2.87131e+06
2.91078e+06
737548
961196
1.16566e+06
1.35351e+06
1.5271e+06
1.68753e+06
1.83521e+06
1.9704e+06
2.09326e+06
2.20399e+06
2.30269e+06
2.38948e+06
2.46452e+06
2.52805e+06
2.58055e+06
2.62306e+06
2.65774e+06
2.68875e+06
2.73535e+06
2.80194e+06
732269
945373
1.13546e+06
1.30754e+06
1.4657e+06
1.61199e+06
1.74738e+06
1.87248e+06
1.98768e+06
2.09326e+06
2.18942e+06
2.27634e+06
2.35429e+06
2.4237e+06
2.48539e+06
2.54093e+06
2.59347e+06
2.6489e+06
2.72907e+06
2.84409e+06
780684
1.02219e+06
1.23444e+06
1.42771e+06
1.60744e+06
1.77557e+06
1.93292e+06
2.08001e+06
2.21731e+06
2.3455e+06
2.4648e+06
2.57557e+06
2.67836e+06
2.77402e+06
2.86402e+06
2.95082e+06
3.03892e+06
3.13641e+06
3.26829e+06
3.4472e+06
3.28859e+06
3.51322e+06
3.73788e+06
3.96248e+06
4.18567e+06
4.40668e+06
4.62529e+06
4.84145e+06
5.05538e+06
5.26787e+06
5.47918e+06
5.68982e+06
5.90056e+06
6.11246e+06
6.32688e+06
6.54553e+06
6.77044e+06
7.00365e+06
7.25072e+06
7.49192e+06
3.3034e+06
3.5632e+06
3.8329e+06
4.10784e+06
4.38449e+06
4.66037e+06
4.93389e+06
5.20404e+06
5.47025e+06
5.73239e+06
5.99169e+06
6.24824e+06
6.50247e+06
6.75516e+06
7.00744e+06
7.26091e+06
7.51759e+06
7.77974e+06
8.05191e+06
8.32499e+06
736111
952910
1.14733e+06
1.32444e+06
1.48847e+06
1.64165e+06
1.78515e+06
1.91979e+06
2.04621e+06
2.16504e+06
2.27745e+06
2.38402e+06
2.48561e+06
2.58349e+06
2.67964e+06
2.7773e+06
2.88186e+06
3.00209e+06
3.15546e+06
3.34872e+06
664891
724070
795909
874766
957392
1.04148e+06
1.12523e+06
1.20728e+06
1.28665e+06
1.36274e+06
1.4353e+06
1.50412e+06
1.56933e+06
1.63144e+06
1.69164e+06
1.75216e+06
1.81708e+06
1.89347e+06
1.99648e+06
2.13492e+06
674014
734841
800984
868870
936947
1.00429e+06
1.07008e+06
1.13357e+06
1.1941e+06
1.25116e+06
1.30435e+06
1.35339e+06
1.39821e+06
1.43903e+06
1.47654e+06
1.51228e+06
1.54927e+06
1.59297e+06
1.65617e+06
1.74664e+06
677773
744830
818471
894103
969336
1.04271e+06
1.11312e+06
1.17963e+06
1.24155e+06
1.29832e+06
1.34951e+06
1.39481e+06
1.43406e+06
1.46733e+06
1.49507e+06
1.51836e+06
1.53949e+06
1.56272e+06
1.59911e+06
1.65439e+06
678442
746633
822759
902329
982620
1.06178e+06
1.13832e+06
1.21103e+06
1.27892e+06
1.34117e+06
1.39713e+06
1.4463e+06
1.4883e+06
1.52298e+06
1.55048e+06
1.57154e+06
1.58789e+06
1.60288e+06
1.62647e+06
1.66233e+06
678595
746789
823244
903769
985722
1.06722e+06
1.14674e+06
1.22296e+06
1.2948e+06
1.3613e+06
1.42167e+06
1.47524e+06
1.52146e+06
1.55998e+06
1.59075e+06
1.61421e+06
1.63172e+06
1.64605e+06
1.6665e+06
1.69516e+06
678672
746792
823170
903774
986052
1.06816e+06
1.1486e+06
1.22607e+06
1.29948e+06
1.36788e+06
1.43044e+06
1.48643e+06
1.53525e+06
1.57647e+06
1.60993e+06
1.63593e+06
1.65565e+06
1.67156e+06
1.69269e+06
1.72013e+06
678717
746798
823091
903634
985927
1.06815e+06
1.14881e+06
1.22665e+06
1.30058e+06
1.36966e+06
1.43309e+06
1.49013e+06
1.54017e+06
1.58277e+06
1.61774e+06
1.64534e+06
1.66668e+06
1.6841e+06
1.70655e+06
1.73464e+06
678738
746804
823057
903557
985829
1.06806e+06
1.14876e+06
1.22668e+06
1.30073e+06
1.37001e+06
1.43369e+06
1.49107e+06
1.54153e+06
1.58463e+06
1.62019e+06
1.64845e+06
1.6705e+06
1.68868e+06
1.71189e+06
1.74057e+06
678738
746804
823057
903557
985829
1.06806e+06
1.14876e+06
1.22668e+06
1.30073e+06
1.37001e+06
1.43369e+06
1.49107e+06
1.54153e+06
1.58463e+06
1.62019e+06
1.64845e+06
1.6705e+06
1.68868e+06
1.71189e+06
1.74057e+06
678717
746798
823091
903634
985927
1.06815e+06
1.14881e+06
1.22665e+06
1.30058e+06
1.36966e+06
1.43309e+06
1.49013e+06
1.54017e+06
1.58277e+06
1.61774e+06
1.64534e+06
1.66668e+06
1.6841e+06
1.70655e+06
1.73464e+06
678672
746792
823170
903774
986052
1.06816e+06
1.1486e+06
1.22607e+06
1.29948e+06
1.36788e+06
1.43044e+06
1.48643e+06
1.53525e+06
1.57647e+06
1.60993e+06
1.63593e+06
1.65565e+06
1.67156e+06
1.69269e+06
1.72014e+06
678595
746789
823244
903769
985722
1.06722e+06
1.14674e+06
1.22296e+06
1.2948e+06
1.3613e+06
1.42167e+06
1.47524e+06
1.52146e+06
1.55998e+06
1.59076e+06
1.61421e+06
1.63172e+06
1.64605e+06
1.66651e+06
1.69516e+06
678442
746633
822759
902329
982620
1.06178e+06
1.13832e+06
1.21103e+06
1.27892e+06
1.34117e+06
1.39713e+06
1.4463e+06
1.4883e+06
1.52298e+06
1.55048e+06
1.57154e+06
1.58789e+06
1.60288e+06
1.62647e+06
1.66233e+06
677773
744830
818471
894103
969336
1.04271e+06
1.11312e+06
1.17963e+06
1.24155e+06
1.29832e+06
1.34951e+06
1.39481e+06
1.43406e+06
1.46733e+06
1.49507e+06
1.51835e+06
1.53949e+06
1.56272e+06
1.59911e+06
1.65439e+06
674014
734841
800984
868870
936946
1.00429e+06
1.07008e+06
1.13357e+06
1.1941e+06
1.25116e+06
1.30435e+06
1.35339e+06
1.39821e+06
1.43902e+06
1.47654e+06
1.51228e+06
1.54927e+06
1.59297e+06
1.65616e+06
1.74664e+06
664891
724070
795909
874766
957391
1.04148e+06
1.12523e+06
1.20728e+06
1.28665e+06
1.36274e+06
1.43529e+06
1.50412e+06
1.56932e+06
1.63144e+06
1.69163e+06
1.75215e+06
1.81707e+06
1.89346e+06
1.99647e+06
2.13491e+06
736111
952910
1.14733e+06
1.32443e+06
1.48846e+06
1.64165e+06
1.78515e+06
1.91978e+06
2.04621e+06
2.16504e+06
2.27745e+06
2.38402e+06
2.48561e+06
2.58349e+06
2.67963e+06
2.77729e+06
2.88185e+06
3.00207e+06
3.15544e+06
3.3487e+06
3.3034e+06
3.5632e+06
3.8329e+06
4.10784e+06
4.38449e+06
4.66037e+06
4.93389e+06
5.20404e+06
5.47025e+06
5.73239e+06
5.99169e+06
6.24824e+06
6.50247e+06
6.75516e+06
7.00744e+06
7.26091e+06
7.51759e+06
7.77974e+06
8.05191e+06
8.32499e+06
3.30635e+06
3.57555e+06
3.86237e+06
4.16126e+06
4.46748e+06
4.77726e+06
5.08765e+06
5.39632e+06
5.70154e+06
6.00204e+06
6.29705e+06
6.58622e+06
6.86964e+06
7.1478e+06
7.42167e+06
7.69462e+06
7.96857e+06
8.2457e+06
8.52958e+06
8.81725e+06
741479
969081
1.17832e+06
1.37199e+06
1.55276e+06
1.72212e+06
1.88087e+06
2.02968e+06
2.16924e+06
2.3003e+06
2.4237e+06
2.54043e+06
2.65173e+06
2.75917e+06
2.8646e+06
2.97288e+06
3.08931e+06
3.22171e+06
3.38257e+06
3.57771e+06
676141
738722
806953
877474
948950
1.02066e+06
1.09195e+06
1.16227e+06
1.23118e+06
1.29838e+06
1.36376e+06
1.42735e+06
1.48945e+06
1.55087e+06
1.61341e+06
1.67952e+06
1.75325e+06
1.84113e+06
1.95407e+06
2.09962e+06
735304
752149
775699
803534
834404
867681
902810
939197
976265
1.0135e+06
1.05051e+06
1.08706e+06
1.12317e+06
1.15915e+06
1.19586e+06
1.23496e+06
1.27951e+06
1.33463e+06
1.40947e+06
1.51136e+06
745710
769165
794443
820357
846554
873035
899723
926385
952695
978303
1.00288e+06
1.02618e+06
1.0481e+06
1.06877e+06
1.08876e+06
1.10925e+06
1.13257e+06
1.16274e+06
1.20741e+06
1.27293e+06
748428
776219
806496
837399
868088
898248
927615
955856
982594
1.00744e+06
1.03005e+06
1.05011e+06
1.06744e+06
1.08205e+06
1.09428e+06
1.105e+06
1.11602e+06
1.13056e+06
1.15518e+06
1.19505e+06
748892
777407
809145
842303
875873
909318
942166
973896
1.00396e+06
1.03181e+06
1.05694e+06
1.07891e+06
1.09737e+06
1.11217e+06
1.12342e+06
1.13174e+06
1.13853e+06
1.14643e+06
1.16129e+06
1.18718e+06
749000
777524
809435
843098
877555
912257
946700
980318
1.0125e+06
1.04263e+06
1.0701e+06
1.09437e+06
1.11498e+06
1.13164e+06
1.14431e+06
1.15341e+06
1.16008e+06
1.16658e+06
1.1783e+06
1.19853e+06
749051
777533
809395
843089
877712
912740
947682
981982
1.01503e+06
1.04621e+06
1.07489e+06
1.10049e+06
1.12252e+06
1.14061e+06
1.15467e+06
1.16499e+06
1.17259e+06
1.17951e+06
1.1909e+06
1.20959e+06
749074
777537
809358
843024
877656
912741
947799
982283
1.01559e+06
1.04711e+06
1.07622e+06
1.10234e+06
1.12495e+06
1.14369e+06
1.15843e+06
1.16943e+06
1.17765e+06
1.18505e+06
1.19669e+06
1.21518e+06
749074
777537
809358
843024
877656
912741
947799
982283
1.01559e+06
1.04711e+06
1.07622e+06
1.10234e+06
1.12495e+06
1.14369e+06
1.15843e+06
1.16943e+06
1.17765e+06
1.18505e+06
1.19669e+06
1.21518e+06
749051
777533
809395
843089
877712
912740
947682
981982
1.01503e+06
1.04621e+06
1.07489e+06
1.10049e+06
1.12252e+06
1.14061e+06
1.15467e+06
1.16499e+06
1.17259e+06
1.17951e+06
1.1909e+06
1.20959e+06
749001
777524
809435
843098
877555
912257
946700
980318
1.0125e+06
1.04263e+06
1.0701e+06
1.09437e+06
1.11498e+06
1.13164e+06
1.14431e+06
1.15341e+06
1.16008e+06
1.16658e+06
1.1783e+06
1.19853e+06
748892
777407
809145
842303
875873
909318
942166
973896
1.00396e+06
1.03181e+06
1.05694e+06
1.07891e+06
1.09737e+06
1.11217e+06
1.12342e+06
1.13174e+06
1.13853e+06
1.14644e+06
1.16129e+06
1.18718e+06
748428
776219
806496
837399
868088
898248
927615
955856
982594
1.00744e+06
1.03005e+06
1.05011e+06
1.06744e+06
1.08205e+06
1.09428e+06
1.105e+06
1.11602e+06
1.13056e+06
1.15518e+06
1.19505e+06
745710
769165
794443
820357
846554
873035
899723
926384
952695
978302
1.00288e+06
1.02618e+06
1.0481e+06
1.06877e+06
1.08875e+06
1.10925e+06
1.13256e+06
1.16273e+06
1.20741e+06
1.27292e+06
735304
752149
775699
803534
834403
867681
902810
939196
976264
1.0135e+06
1.0505e+06
1.08705e+06
1.12317e+06
1.15915e+06
1.19585e+06
1.23496e+06
1.2795e+06
1.33462e+06
1.40946e+06
1.51135e+06
676141
738722
806953
877473
948949
1.02066e+06
1.09195e+06
1.16227e+06
1.23118e+06
1.29838e+06
1.36376e+06
1.42735e+06
1.48944e+06
1.55086e+06
1.6134e+06
1.67951e+06
1.75324e+06
1.84111e+06
1.95405e+06
2.0996e+06
741479
969081
1.17832e+06
1.37198e+06
1.55276e+06
1.72212e+06
1.88087e+06
2.02968e+06
2.16924e+06
2.30029e+06
2.42369e+06
2.54043e+06
2.65172e+06
2.75916e+06
2.86459e+06
2.97287e+06
3.08929e+06
3.22169e+06
3.38255e+06
3.57769e+06
3.30635e+06
3.57555e+06
3.86237e+06
4.16126e+06
4.46748e+06
4.77726e+06
5.08765e+06
5.39632e+06
5.70154e+06
6.00204e+06
6.29705e+06
6.58623e+06
6.86965e+06
7.14781e+06
7.42167e+06
7.69462e+06
7.96858e+06
8.2457e+06
8.52958e+06
8.81725e+06
3.3066e+06
3.57726e+06
3.86794e+06
4.17337e+06
4.48876e+06
4.8103e+06
5.13486e+06
5.45984e+06
5.78308e+06
6.10289e+06
6.41806e+06
6.7278e+06
7.03177e+06
7.33002e+06
7.6231e+06
7.91383e+06
8.20346e+06
8.49391e+06
8.78802e+06
9.08597e+06
743256
973932
1.18967e+06
1.39338e+06
1.58697e+06
1.77106e+06
1.94579e+06
2.11124e+06
2.26761e+06
2.4153e+06
2.55489e+06
2.68721e+06
2.81343e+06
2.93517e+06
3.05463e+06
3.17585e+06
3.30353e+06
3.44455e+06
3.6084e+06
3.80048e+06
680243
749656
826291
905807
986102
1.06602e+06
1.14475e+06
1.22171e+06
1.29655e+06
1.36915e+06
1.43959e+06
1.50817e+06
1.57549e+06
1.6425e+06
1.71079e+06
1.78331e+06
1.86389e+06
1.95831e+06
2.07485e+06
2.21958e+06
747826
772979
800228
828496
857548
887518
918472
950329
982935
1.01613e+06
1.04983e+06
1.08402e+06
1.11893e+06
1.15515e+06
1.19383e+06
1.23676e+06
1.28691e+06
1.34892e+06
1.42979e+06
1.53545e+06
808881
811041
816780
825164
835487
847387
860625
874962
890152
905975
922267
938982
956226
974346
994090
1.01682e+06
1.04484e+06
1.08189e+06
1.13382e+06
1.20599e+06
817875
826771
836015
845431
854887
864374
873887
883356
892659
901655
910218
918280
925882
933256
940948
950008
962274
980768
1.01043e+06
1.0559e+06
819892
831976
844846
857886
870673
882997
894713
905660
915652
924495
932013
938078
942648
945846
948057
950098
953464
960661
975965
1.00331e+06
820225
832840
846728
861295
876011
890527
904558
917813
929987
940775
949893
957101
962244
965312
966536
966538
966550
968704
976820
994251
820295
832926
846947
861862
877169
892510
907578
922051
935579
947802
958372
966974
973369
977451
979334
979498
978994
979706
985163
998302
820319
832930
846938
861892
877317
892866
908242
923123
937158
949976
961211
970522
977636
982403
984885
985491
985185
985729
990509
1.00225e+06
820319
832930
846938
861892
877317
892866
908242
923123
937158
949976
961211
970522
977636
982403
984885
985491
985185
985729
990509
1.00225e+06
820295
832926
846947
861862
877169
892510
907578
922051
935579
947802
958372
966974
973369
977451
979334
979498
978994
979706
985163
998302
820225
832840
846728
861295
876011
890527
904558
917813
929987
940775
949893
957101
962244
965312
966536
966538
966550
968704
976820
994250
819892
831976
844846
857886
870673
882997
894713
905660
915652
924495
932013
938077
942648
945846
948057
950097
953463
960660
975963
1.00331e+06
817875
826771
836015
845431
854887
864374
873887
883355
892659
901655
910218
918279
925881
933254
940946
950005
962271
980765
1.01042e+06
1.05589e+06
808881
811041
816780
825164
835487
847386
860625
874961
890151
905974
922266
938980
956224
974344
994087
1.01681e+06
1.04483e+06
1.08188e+06
1.13381e+06
1.20598e+06
747826
772979
800228
828495
857547
887517
918471
950328
982934
1.01613e+06
1.04983e+06
1.08402e+06
1.11892e+06
1.15515e+06
1.19382e+06
1.23675e+06
1.2869e+06
1.34891e+06
1.42978e+06
1.53543e+06
680243
749655
826290
905807
986102
1.06602e+06
1.14475e+06
1.2217e+06
1.29655e+06
1.36915e+06
1.43958e+06
1.50816e+06
1.57549e+06
1.64249e+06
1.71078e+06
1.7833e+06
1.86388e+06
1.95829e+06
2.07483e+06
2.21955e+06
743255
973931
1.18967e+06
1.39338e+06
1.58697e+06
1.77106e+06
1.94579e+06
2.11123e+06
2.26761e+06
2.4153e+06
2.55489e+06
2.68721e+06
2.81343e+06
2.93516e+06
3.05462e+06
3.17583e+06
3.30351e+06
3.44452e+06
3.60838e+06
3.80044e+06
3.3066e+06
3.57726e+06
3.86794e+06
4.17337e+06
4.48876e+06
4.8103e+06
5.13486e+06
5.45984e+06
5.78308e+06
6.1029e+06
6.41807e+06
6.72781e+06
7.03177e+06
7.33003e+06
7.62311e+06
7.91384e+06
8.20347e+06
8.49391e+06
8.78803e+06
9.08597e+06
3.30653e+06
3.57721e+06
3.86854e+06
4.17564e+06
4.49402e+06
4.82015e+06
5.15107e+06
5.48418e+06
5.81722e+06
6.14827e+06
6.47578e+06
6.79857e+06
7.11587e+06
7.42733e+06
7.73301e+06
8.03342e+06
8.3299e+06
8.62617e+06
8.92444e+06
9.22622e+06
743582
974285
1.19075e+06
1.39645e+06
1.59341e+06
1.78226e+06
1.96311e+06
2.13596e+06
2.30093e+06
2.45823e+06
2.60827e+06
2.75171e+06
2.88954e+06
3.02319e+06
3.15476e+06
3.28722e+06
3.4246e+06
3.57374e+06
3.7422e+06
3.93528e+06
680897
751488
830728
914389
1.00008e+06
1.08629e+06
1.17195e+06
1.25626e+06
1.33871e+06
1.41906e+06
1.49732e+06
1.57377e+06
1.64901e+06
1.72406e+06
1.80051e+06
1.88058e+06
1.96802e+06
2.06805e+06
2.18727e+06
2.33095e+06
750851
780805
813727
847897
882661
917929
953692
989896
1.02647e+06
1.0634e+06
1.10072e+06
1.13863e+06
1.17752e+06
1.21808e+06
1.26139e+06
1.30937e+06
1.36489e+06
1.43205e+06
1.51644e+06
1.6231e+06
819842
830163
840950
852136
863706
875777
888475
901872
915994
930865
946548
963180
981048
1.00068e+06
1.02301e+06
1.04947e+06
1.0823e+06
1.12486e+06
1.1819e+06
1.25798e+06
877572
873846
872384
872656
874115
876424
879406
882948
886965
891402
896253
901598
907641
914774
923696
935558
952184
976362
1.01211e+06
1.06348e+06
885225
887519
889652
891669
893495
895082
896424
897514
898326
898833
899025
898944
898729
898677
899340
901658
907153
918177
938200
970790
886805
891617
896591
901439
905875
909714
912849
915204
916705
917283
916885
915501
913204
910203
906935
904179
903240
906158
916023
936010
887055
892296
898063
904068
909939
915385
920195
924198
927230
929139
929790
929092
927030
923720
919486
914979
911335
910375
914935
927903
887096
892365
898260
904539
910839
916855
922358
927143
931012
933766
935226
935245
933754
930804
926650
921861
917475
915194
917714
927764
887096
892365
898260
904539
910839
916855
922358
927143
931012
933766
935226
935245
933754
930804
926650
921861
917475
915194
917714
927764
887055
892296
898064
904068
909939
915385
920195
924198
927230
929139
929790
929092
927030
923719
919486
914979
911334
910375
914934
927901
886805
891617
896591
901439
905875
909714
912849
915204
916705
917283
916885
915501
913204
910203
906934
904178
903239
906156
916021
936007
885225
887519
889652
891669
893494
895082
896424
897513
898326
898833
899024
898943
898728
898676
899338
901656
907150
918173
938195
970784
877572
873846
872384
872656
874114
876423
879405
882947
886964
891401
896252
901597
907639
914771
923693
935554
952180
976356
1.0121e+06
1.06347e+06
819842
830163
840949
852136
863706
875776
888475
901871
915992
930863
946546
963178
981045
1.00067e+06
1.023e+06
1.04946e+06
1.08229e+06
1.12485e+06
1.18189e+06
1.25797e+06
750850
780805
813727
847897
882660
917928
953691
989894
1.02647e+06
1.0634e+06
1.10072e+06
1.13863e+06
1.17752e+06
1.21808e+06
1.26139e+06
1.30937e+06
1.36488e+06
1.43203e+06
1.51643e+06
1.62308e+06
680897
751488
830727
914388
1.00007e+06
1.08629e+06
1.17195e+06
1.25626e+06
1.33871e+06
1.41905e+06
1.49731e+06
1.57376e+06
1.649e+06
1.72405e+06
1.8005e+06
1.88057e+06
1.968e+06
2.06803e+06
2.18724e+06
2.33092e+06
743582
974285
1.19075e+06
1.39645e+06
1.59341e+06
1.78226e+06
1.96311e+06
2.13596e+06
2.30093e+06
2.45823e+06
2.60827e+06
2.75171e+06
2.88953e+06
3.02318e+06
3.15475e+06
3.28721e+06
3.42458e+06
3.57372e+06
3.74217e+06
3.93524e+06
3.30653e+06
3.57721e+06
3.86854e+06
4.17564e+06
4.49402e+06
4.82015e+06
5.15107e+06
5.48418e+06
5.81722e+06
6.14828e+06
6.47578e+06
6.79857e+06
7.11588e+06
7.42734e+06
7.73302e+06
8.03343e+06
8.32991e+06
8.62618e+06
8.92444e+06
9.22623e+06
3.30649e+06
3.57708e+06
3.8685e+06
4.17598e+06
4.49514e+06
4.82253e+06
5.15527e+06
5.49087e+06
5.8271e+06
6.16207e+06
6.49421e+06
6.82227e+06
7.14539e+06
7.46305e+06
7.77512e+06
8.08184e+06
8.38387e+06
8.68376e+06
8.9843e+06
9.28752e+06
743715
974318
1.19077e+06
1.39691e+06
1.59494e+06
1.7856e+06
1.96904e+06
2.14534e+06
2.31461e+06
2.47707e+06
2.63308e+06
2.78323e+06
2.92844e+06
3.07003e+06
3.20992e+06
3.35078e+06
3.49633e+06
3.65192e+06
3.82434e+06
4.01911e+06
681013
751594
831186
915870
1.00334e+06
1.0921e+06
1.18104e+06
1.26931e+06
1.35635e+06
1.44183e+06
1.52571e+06
1.60818e+06
1.68976e+06
1.77138e+06
1.85449e+06
1.94121e+06
2.03453e+06
2.13893e+06
2.26005e+06
2.40286e+06
751314
782032
816534
853185
891186
930269
970271
1.01102e+06
1.05237e+06
1.09423e+06
1.13663e+06
1.17973e+06
1.22393e+06
1.26991e+06
1.31879e+06
1.37222e+06
1.43267e+06
1.50384e+06
1.59036e+06
1.69675e+06
822154
836073
851070
866668
882606
898862
915506
932608
950236
968485
987504
1.00754e+06
1.02898e+06
1.05242e+06
1.07879e+06
1.1095e+06
1.14668e+06
1.19329e+06
1.2533e+06
1.33077e+06
887079
890661
894142
897673
901273
904991
908920
913157
917793
922928
928697
935303
943065
952484
964354
979842
1.00069e+06
1.0294e+06
1.06936e+06
1.12421e+06
940762
933922
928735
924835
921804
919346
917292
915549
914070
912842
911904
911371
911472
912597
915384
920819
930387
946252
971378
1.00903e+06
947387
945871
944048
942024
939774
937252
934436
931316
927889
924157
920150
915953
911744
907845
904796
903456
905136
911770
926043
950962
948672
949236
949748
950030
949890
949174
947785
945661
942759
939051
934535
929260
923362
917108
910974
905733
902590
903338
910501
926944
948860
949793
950951
952125
953042
953459
953195
952112
950102
947079
942990
937839
931715
924843
917650
910860
905619
903647
907392
919657
948860
949793
950951
952125
953042
953459
953195
952112
950102
947079
942990
937839
931715
924843
917650
910860
905619
903646
907391
919657
948672
949236
949748
950030
949890
949174
947785
945661
942759
939050
934534
929260
923361
917108
910973
905732
902589
903337
910499
926941
947387
945871
944048
942024
939774
937252
934436
931316
927889
924156
920149
915953
911744
907844
904795
903454
905134
911767
926039
950957
940762
933922
928735
924835
921804
919346
917291
915549
914070
912842
911903
911370
911470
912595
915381
920816
930383
946246
971371
1.00902e+06
887079
890661
894142
897673
901273
904991
908919
913156
917792
922926
928695
935301
943062
952481
964350
979837
1.00068e+06
1.02939e+06
1.06935e+06
1.12419e+06
822154
836073
851070
866668
882605
898862
915505
932607
950235
968483
987502
1.00754e+06
1.02897e+06
1.05242e+06
1.07879e+06
1.10949e+06
1.14667e+06
1.19328e+06
1.25328e+06
1.33075e+06
751314
782031
816534
853184
891186
930268
970270
1.01102e+06
1.05237e+06
1.09423e+06
1.13662e+06
1.17973e+06
1.22392e+06
1.26991e+06
1.31878e+06
1.37221e+06
1.43265e+06
1.50382e+06
1.59034e+06
1.69673e+06
681013
751594
831185
915869
1.00334e+06
1.0921e+06
1.18104e+06
1.26931e+06
1.35634e+06
1.44183e+06
1.52571e+06
1.60817e+06
1.68975e+06
1.77137e+06
1.85448e+06
1.94119e+06
2.03451e+06
2.13891e+06
2.26003e+06
2.40283e+06
743715
974317
1.19077e+06
1.39691e+06
1.59494e+06
1.78559e+06
1.96904e+06
2.14534e+06
2.31461e+06
2.47707e+06
2.63308e+06
2.78323e+06
2.92843e+06
3.07002e+06
3.20991e+06
3.35077e+06
3.49631e+06
3.6519e+06
3.82431e+06
4.01906e+06
3.30649e+06
3.57708e+06
3.8685e+06
4.17598e+06
4.49514e+06
4.82253e+06
5.15527e+06
5.49087e+06
5.82711e+06
6.16208e+06
6.49421e+06
6.82227e+06
7.14539e+06
7.46305e+06
7.77512e+06
8.08185e+06
8.38389e+06
8.68378e+06
8.98431e+06
9.28753e+06
3.30646e+06
3.57702e+06
3.86848e+06
4.17615e+06
4.49569e+06
4.82369e+06
5.15735e+06
5.49421e+06
5.83212e+06
6.16919e+06
6.50384e+06
6.8348e+06
7.16112e+06
7.48217e+06
7.79768e+06
8.10771e+06
8.41268e+06
8.71339e+06
9.01288e+06
9.31408e+06
743788
974355
1.19076e+06
1.397e+06
1.59538e+06
1.78672e+06
1.97124e+06
2.14906e+06
2.32038e+06
2.48548e+06
2.64476e+06
2.79887e+06
2.94873e+06
3.09562e+06
3.24139e+06
3.38851e+06
3.54032e+06
3.70121e+06
3.87725e+06
4.07436e+06
681062
751567
831111
915943
1.00386e+06
1.09342e+06
1.18355e+06
1.27344e+06
1.36255e+06
1.4506e+06
1.53751e+06
1.62347e+06
1.709e+06
1.79493e+06
1.88259e+06
1.97392e+06
2.07159e+06
2.17925e+06
2.30166e+06
2.44393e+06
751395
782107
816800
854015
893011
933522
975377
1.0184e+06
1.06241e+06
1.10731e+06
1.15308e+06
1.19988e+06
1.24804e+06
1.2982e+06
1.35136e+06
1.40904e+06
1.47341e+06
1.54742e+06