/*--------------------------------*- C++ -*----------------------------------*\
  =========                 |
  \\      /  F ield         | OpenFOAM: The Open Source CFD Toolbox
   \\    /   O peration     | Website:  https://openfoam.org
    \\  /    A nd           | Version:  10
     \\/     M anipulation  |
\*---------------------------------------------------------------------------*/
FoamFile
{
    format      ascii;
    class       volScalarField;
    location    "400";
    object      nut;
}
// * * * * * * * * * * * * * * * * * * * * * * * * * * * * * * * * * * * * * //

dimensions      [0 2 -1 0 0 0 0];

internalField   nonuniform List<scalar> 
112000
(
0.00603319
0.00610161
0.00617213
0.00624397
0.00631595
0.00638763
0.00645899
0.00653013
0.0066012
0.00667237
0.0067439
0.00681607
0.00688923
0.00696381
0.00704029
0.00711922
0.00720119
0.00728669
0.00737844
0.00745485
0.00609983
0.00623758
0.00637066
0.00649948
0.00662372
0.00674345
0.00685898
0.00697068
0.00707891
0.00718402
0.00728643
0.00738657
0.00748495
0.00758214
0.0076788
0.00777574
0.00787403
0.00797511
0.00808497
0.00818549
0.0061083
0.00626542
0.00642158
0.00657441
0.00672247
0.00686508
0.00700206
0.00713352
0.00725973
0.00738106
0.00749794
0.00761086
0.00772038
0.00782712
0.00793177
0.00803515
0.00813833
0.0082427
0.00835464
0.00845487
0.00611005
0.00627239
0.00643754
0.00660214
0.00676382
0.0069211
0.0070731
0.00721938
0.00735978
0.00749437
0.00762341
0.00774725
0.00786637
0.00798133
0.00809279
0.00820151
0.00830843
0.00841466
0.0085262
0.00862126
0.00611018
0.00627328
0.00644036
0.00660807
0.0067739
0.00693624
0.00709408
0.00724678
0.00739401
0.0075357
0.00767192
0.00780294
0.00792912
0.00805094
0.00816898
0.0082839
0.00839653
0.00850775
0.00862319
0.00871909
0.00611015
0.00627319
0.00644052
0.00660893
0.00677601
0.00694023
0.0071006
0.00725648
0.00740746
0.00755337
0.00769419
0.00783008
0.00796131
0.00808826
0.00821144
0.00833144
0.00844902
0.00856494
0.00868473
0.00878328
0.00611012
0.00627309
0.00644036
0.00660881
0.00677605
0.00694059
0.00710147
0.00725807
0.00741002
0.00755716
0.00769947
0.00783712
0.00797039
0.00809965
0.00822541
0.00834826
0.00846897
0.00858828
0.00871179
0.00881381
0.00611012
0.00627302
0.00644023
0.00660863
0.00677586
0.00694042
0.00710139
0.00725818
0.00741043
0.00755799
0.00770088
0.00783925
0.00797341
0.00810373
0.00823071
0.00835498
0.0084773
0.00859844
0.0087241
0.0088283
0.00611011
0.00627299
0.00644016
0.00660853
0.00677572
0.00694025
0.00710119
0.00725797
0.00741024
0.00755784
0.00770082
0.00783934
0.0079737
0.00810431
0.00823168
0.00835643
0.00847938
0.00860132
0.00872801
0.00883342
0.00611011
0.00627298
0.00644013
0.00660848
0.00677565
0.00694016
0.00710108
0.00725784
0.0074101
0.0075577
0.00770069
0.00783924
0.00797366
0.00810435
0.00823183
0.00835675
0.00847991
0.00860214
0.00872921
0.00883509
0.00611011
0.00627298
0.00644013
0.00660848
0.00677565
0.00694016
0.00710108
0.00725784
0.0074101
0.0075577
0.00770069
0.00783924
0.00797366
0.00810435
0.00823183
0.00835675
0.00847991
0.00860214
0.00872921
0.00883509
0.00611011
0.00627299
0.00644016
0.00660853
0.00677572
0.00694025
0.00710119
0.00725797
0.00741024
0.00755784
0.00770082
0.00783934
0.0079737
0.00810431
0.00823168
0.00835643
0.00847938
0.00860132
0.00872801
0.00883342
0.00611012
0.00627302
0.00644023
0.00660863
0.00677586
0.00694042
0.00710139
0.00725818
0.00741043
0.00755799
0.00770087
0.00783925
0.00797341
0.00810373
0.00823071
0.00835498
0.0084773
0.00859844
0.0087241
0.0088283
0.00611012
0.00627309
0.00644036
0.00660881
0.00677605
0.00694059
0.00710147
0.00725807
0.00741002
0.00755716
0.00769947
0.00783712
0.00797039
0.00809965
0.00822541
0.00834826
0.00846897
0.00858828
0.00871179
0.00881381
0.00611015
0.00627319
0.00644052
0.00660893
0.00677601
0.00694023
0.0071006
0.00725648
0.00740746
0.00755337
0.00769419
0.00783008
0.00796131
0.00808826
0.00821144
0.00833144
0.00844902
0.00856493
0.00868473
0.00878328
0.00611018
0.00627328
0.00644036
0.00660807
0.0067739
0.00693624
0.00709408
0.00724678
0.00739401
0.0075357
0.00767192
0.00780294
0.00792912
0.00805094
0.00816898
0.0082839
0.00839653
0.00850774
0.00862319
0.00871909
0.00611005
0.00627239
0.00643754
0.00660214
0.00676382
0.0069211
0.0070731
0.00721938
0.00735978
0.00749437
0.00762341
0.00774724
0.00786636
0.00798133
0.00809279
0.00820151
0.00830843
0.00841466
0.0085262
0.00862126
0.0061083
0.00626542
0.00642158
0.00657441
0.00672247
0.00686508
0.00700206
0.00713352
0.00725973
0.00738106
0.00749794
0.00761086
0.00772038
0.00782712
0.00793177
0.00803515
0.00813833
0.0082427
0.00835464
0.00845487
0.00609983
0.00623758
0.00637066
0.00649948
0.00662372
0.00674345
0.00685898
0.00697068
0.00707891
0.00718402
0.00728643
0.00738657
0.00748495
0.00758214
0.0076788
0.00777574
0.00787403
0.00797511
0.00808497
0.00818549
0.00603319
0.00610161
0.00617213
0.00624397
0.00631595
0.00638763
0.00645899
0.00653013
0.00660119
0.00667237
0.0067439
0.00681606
0.00688923
0.00696381
0.00704029
0.00711921
0.00720118
0.00728668
0.00737843
0.00745484
0.00609905
0.00623487
0.00636503
0.00649004
0.00660967
0.00672402
0.00683342
0.00693826
0.00703898
0.00713625
0.00723043
0.00732192
0.00741122
0.00749889
0.00758557
0.00767197
0.00775885
0.00784694
0.00793814
0.00802521
0.0579885
0.0522117
0.0482771
0.0453294
0.0430015
0.0410913
0.0394783
0.0380873
0.0368662
0.0357729
0.0347872
0.0338951
0.0330879
0.0323615
0.031717
0.0311627
0.0307179
0.0304203
0.0303721
0.0306477
0.0640449
0.06109
0.0585614
0.0563158
0.0543097
0.0525062
0.0508739
0.0493883
0.0480311
0.0467878
0.0456481
0.0446057
0.0436586
0.0428098
0.0420693
0.0414573
0.0410128
0.040806
0.0410135
0.0417701
0.0645061
0.0621732
0.0602361
0.0584909
0.0568817
0.0553805
0.0539703
0.0526411
0.0513872
0.0502056
0.0490953
0.048057
0.0470945
0.0462154
0.0454335
0.0447733
0.0442783
0.044027
0.0442184
0.0450084
0.064568
0.0623517
0.06059
0.0590534
0.0576584
0.0563592
0.0551292
0.0539532
0.0528238
0.051738
0.0506962
0.0497008
0.0487572
0.047874
0.0470654
0.0463549
0.045783
0.0454213
0.045461
0.0460366
0.0645792
0.0623767
0.0606504
0.0591743
0.057859
0.0566522
0.0555212
0.0544458
0.053414
0.0524194
0.0514594
0.0505346
0.0496485
0.0488082
0.0480263
0.0473235
0.0467362
0.046328
0.0462778
0.0466916
0.0645829
0.0623802
0.0606576
0.0591947
0.0579028
0.0567288
0.0556385
0.0546103
0.0536305
0.0526906
0.0517864
0.0509166
0.0500832
0.0492918
0.0485532
0.0478864
0.0473247
0.0469267
0.0468638
0.0472204
0.0645849
0.062381
0.0606567
0.0591944
0.0579068
0.056741
0.0556629
0.0546508
0.0536909
0.0527746
0.0518971
0.0510565
0.0502542
0.0494952
0.0487894
0.0481549
0.0476239
0.0472526
0.0472096
0.0475683
0.064586
0.0623815
0.0606556
0.0591921
0.0579047
0.0567404
0.0556653
0.0546578
0.0537044
0.0527964
0.0519291
0.0511008
0.0503126
0.0495696
0.0488813
0.0482658
0.047755
0.0474045
0.0473824
0.0477573
0.0645865
0.0623818
0.0606552
0.0591909
0.0579031
0.0567389
0.0556642
0.0546577
0.0537059
0.0528002
0.0519359
0.0511114
0.0503281
0.0495908
0.0489094
0.0483017
0.0477998
0.0474593
0.0474486
0.0478343
0.0645865
0.0623818
0.0606552
0.0591909
0.0579031
0.0567389
0.0556642
0.0546577
0.0537059
0.0528002
0.0519359
0.0511114
0.0503281
0.0495908
0.0489094
0.0483017
0.0477998
0.0474593
0.0474486
0.0478343
0.064586
0.0623815
0.0606556
0.0591921
0.0579047
0.0567404
0.0556653
0.0546578
0.0537044
0.0527964
0.0519291
0.0511008
0.0503126
0.0495696
0.0488813
0.0482658
0.047755
0.0474045
0.0473825
0.0477573
0.0645849
0.062381
0.0606567
0.0591944
0.0579068
0.056741
0.0556629
0.0546508
0.0536909
0.0527746
0.0518971
0.0510565
0.0502542
0.0494952
0.0487894
0.0481549
0.0476239
0.0472526
0.0472096
0.0475683
0.0645829
0.0623802
0.0606576
0.0591947
0.0579028
0.0567288
0.0556385
0.0546103
0.0536305
0.0526906
0.0517864
0.0509166
0.0500832
0.0492918
0.0485532
0.0478864
0.0473247
0.0469267
0.0468638
0.0472204
0.0645792
0.0623767
0.0606504
0.0591743
0.057859
0.0566522
0.0555212
0.0544457
0.053414
0.0524194
0.0514594
0.0505346
0.0496485
0.0488082
0.0480263
0.0473235
0.0467362
0.046328
0.0462779
0.0466916
0.064568
0.0623517
0.06059
0.0590534
0.0576584
0.0563592
0.0551292
0.0539532
0.0528238
0.051738
0.0506962
0.0497008
0.0487572
0.047874
0.0470654
0.0463549
0.045783
0.0454213
0.045461
0.0460366
0.0645061
0.0621732
0.0602361
0.0584909
0.0568817
0.0553805
0.0539703
0.052641
0.0513872
0.0502056
0.0490953
0.048057
0.0470945
0.0462154
0.0454335
0.0447733
0.0442783
0.044027
0.0442184
0.0450084
0.0640449
0.06109
0.0585614
0.0563158
0.0543097
0.0525062
0.0508739
0.0493883
0.0480311
0.0467878
0.0456481
0.0446057
0.0436586
0.0428099
0.0420693
0.0414574
0.0410128
0.0408061
0.0410136
0.0417702
0.0579885
0.0522117
0.0482771
0.0453294
0.0430015
0.0410913
0.0394783
0.0380873
0.0368662
0.0357729
0.0347872
0.0338951
0.0330879
0.0323615
0.0317171
0.0311628
0.030718
0.0304205
0.0303723
0.0306479
0.00609905
0.00623487
0.00636503
0.00649004
0.00660967
0.00672402
0.00683342
0.00693826
0.00703898
0.00713626
0.00723043
0.00732192
0.00741122
0.00749889
0.00758557
0.00767197
0.00775885
0.00784694
0.00793814
0.00802521
0.00610819
0.00626429
0.00641852
0.00656846
0.00671272
0.00685065
0.00698214
0.00710731
0.00722649
0.00734013
0.00744918
0.00755401
0.00765511
0.00775301
0.00784835
0.00794186
0.00803436
0.00812669
0.00822037
0.00831227
0.0641006
0.0611826
0.0586773
0.0564458
0.0544462
0.0526429
0.0510051
0.0495087
0.0481348
0.0468666
0.0456724
0.0445515
0.043504
0.0425325
0.0416441
0.0408495
0.0401699
0.0396418
0.0393377
0.0392894
0.0736941
0.0740885
0.0741175
0.0737819
0.0731629
0.0723418
0.0713837
0.0703392
0.0692476
0.0681362
0.0670228
0.0659298
0.0648781
0.0638898
0.0629911
0.0622179
0.061625
0.0612969
0.0613867
0.0619621
0.0746681
0.0760412
0.0769696
0.07745
0.0775558
0.0773686
0.0769583
0.0763829
0.0756906
0.0749211
0.0741076
0.0732797
0.0724656
0.0716957
0.0710076
0.070452
0.0701056
0.0700864
0.0706084
0.071787
0.074865
0.0765403
0.077799
0.0785967
0.0789833
0.0790325
0.0788143
0.0783904
0.0778136
0.0771289
0.0763743
0.0755831
0.0747868
0.0740181
0.0733161
0.0727337
0.0723503
0.0722904
0.0727893
0.073991
0.0749028
0.0766479
0.0780255
0.0789787
0.0795364
0.0797547
0.0796925
0.0794044
0.0789392
0.0783397
0.0776433
0.0768829
0.0760896
0.0752952
0.0745367
0.0738631
0.0733473
0.0731036
0.073359
0.0742521
0.0749108
0.0766645
0.0780686
0.0790723
0.0797014
0.0800061
0.0800392
0.0798498
0.079482
0.078974
0.0783596
0.0776685
0.076929
0.0761698
0.0754242
0.0747361
0.0741705
0.0738293
0.0739237
0.0745699
0.0749137
0.0766661
0.0780718
0.0790857
0.0797353
0.0800704
0.080143
0.080001
0.0796864
0.079236
0.0786811
0.0780494
0.0773668
0.0766595
0.075958
0.0753025
0.0747527
0.0744021
0.0744509
0.0749956
0.0749153
0.0766662
0.0780698
0.0790838
0.0797372
0.0800805
0.0801657
0.0800407
0.0797479
0.0793234
0.0787982
0.0781994
0.0775518
0.0768808
0.0762154
0.075594
0.0750739
0.0747445
0.0748001
0.0753258
0.074916
0.0766663
0.0780686
0.0790816
0.0797352
0.0800801
0.0801683
0.0800481
0.0797619
0.079346
0.0788316
0.0782456
0.0776126
0.0769579
0.07631
0.0757068
0.0752047
0.0748916
0.0749599
0.0754897
0.074916
0.0766663
0.0780686
0.0790816
0.0797352
0.0800801
0.0801683
0.0800481
0.0797619
0.079346
0.0788316
0.0782456
0.0776126
0.0769579
0.07631
0.0757068
0.0752047
0.0748916
0.0749599
0.0754897
0.0749153
0.0766662
0.0780698
0.0790838
0.0797372
0.0800805
0.0801657
0.0800407
0.0797479
0.0793234
0.0787982
0.0781994
0.0775518
0.0768808
0.0762154
0.0755941
0.075074
0.0747445
0.0748002
0.0753259
0.0749137
0.0766661
0.0780718
0.0790857
0.0797353
0.0800704
0.080143
0.080001
0.0796864
0.079236
0.0786811
0.0780494
0.0773668
0.0766595
0.075958
0.0753025
0.0747527
0.0744022
0.0744509
0.0749957
0.0749108
0.0766645
0.0780686
0.0790723
0.0797014
0.0800061
0.0800392
0.0798498
0.079482
0.078974
0.0783596
0.0776685
0.076929
0.0761698
0.0754242
0.0747361
0.0741705
0.0738293
0.0739238
0.0745699
0.0749028
0.0766479
0.0780255
0.0789787
0.0795364
0.0797547
0.0796925
0.0794044
0.0789392
0.0783397
0.0776433
0.0768829
0.0760896
0.0752952
0.0745367
0.0738631
0.0733473
0.0731036
0.073359
0.0742521
0.074865
0.0765403
0.077799
0.0785967
0.0789833
0.0790325
0.0788143
0.0783904
0.0778136
0.0771289
0.0763743
0.0755831
0.0747868
0.0740181
0.0733161
0.0727337
0.0723503
0.0722904
0.0727893
0.073991
0.0746681
0.0760412
0.0769696
0.07745
0.0775558
0.0773686
0.0769583
0.0763829
0.0756906
0.0749211
0.0741076
0.0732797
0.0724655
0.0716957
0.0710076
0.0704521
0.0701056
0.0700864
0.0706084
0.0717871
0.0736941
0.0740885
0.0741175
0.0737819
0.0731629
0.0723418
0.0713837
0.0703392
0.0692476
0.0681362
0.0670228
0.0659298
0.0648781
0.0638899
0.0629911
0.062218
0.0616251
0.0612971
0.0613868
0.0619623
0.0641006
0.0611826
0.0586773
0.0564458
0.0544462
0.0526429
0.0510051
0.0495087
0.0481348
0.0468666
0.0456724
0.0445515
0.043504
0.0425326
0.0416442
0.0408496
0.0401701
0.039642
0.039338
0.0392896
0.00610819
0.00626429
0.00641852
0.00656846
0.00671272
0.00685065
0.00698214
0.00710732
0.00722649
0.00734013
0.00744918
0.00755401
0.00765511
0.00775301
0.00784835
0.00794186
0.00803436
0.00812669
0.00822037
0.00831227
0.00611
0.00627152
0.00643492
0.00659681
0.00675481
0.00690746
0.00705393
0.00719379
0.00732694
0.00745347
0.00757363
0.00768783
0.00779656
0.00790041
0.00800004
0.00809694
0.00819191
0.0082858
0.00837982
0.00847298
0.0645676
0.0622809
0.0603763
0.0586536
0.0570601
0.0555704
0.054169
0.0528462
0.0515962
0.0504154
0.0493006
0.0482511
0.0472681
0.0463566
0.0455292
0.0447646
0.0440844
0.0435232
0.0431328
0.0429383
0.0747368
0.0761474
0.0771029
0.0776028
0.0777224
0.0775441
0.0771379
0.076561
0.0758604
0.0750743
0.0742345
0.0733695
0.0725064
0.0716697
0.0708743
0.0701593
0.0695792
0.0692105
0.0691645
0.0694986
0.0772547
0.0780566
0.0790564
0.0800676
0.0809871
0.0817649
0.0823768
0.082815
0.0830837
0.0831968
0.0831743
0.0830393
0.0828192
0.0825495
0.0822736
0.0820493
0.0819574
0.0821118
0.0826794
0.0837596
0.0777688
0.0788547
0.0799536
0.0809943
0.0819405
0.0827749
0.0834859
0.0840661
0.084513
0.0848305
0.0850282
0.0851216
0.0851327
0.0850914
0.0850395
0.0850365
0.0851699
0.085568
0.0864295
0.0878879
0.0778998
0.079173
0.0804562
0.0816543
0.0827217
0.0836405
0.0844034
0.0850081
0.0854576
0.0857597
0.0859267
0.0859753
0.0859272
0.0858112
0.0856666
0.0855495
0.0855438
0.0857758
0.0864518
0.0877234
0.077926
0.0792457
0.080605
0.0819029
0.0830817
0.0841125
0.0849795
0.0856747
0.0861971
0.0865518
0.086749
0.0868038
0.0867357
0.0865708
0.0863445
0.086107
0.0859339
0.0859396
0.0863208
0.0872242
0.0779318
0.0792576
0.0806338
0.0819641
0.0831905
0.0842809
0.0852157
0.0859833
0.0865788
0.0870037
0.0872647
0.0873734
0.0873458
0.0872042
0.0869793
0.0867154
0.0864796
0.0863744
0.0865827
0.0872359
0.0779338
0.0792592
0.0806364
0.0819731
0.0832128
0.0843242
0.0852872
0.0860895
0.0867252
0.0871944
0.0875019
0.0876572
0.0876743
0.0875725
0.0873795
0.0871356
0.0869021
0.0867735
0.0869229
0.0874681
0.0779347
0.0792594
0.0806357
0.0819726
0.083215
0.0843317
0.0853031
0.0861171
0.0867677
0.0872548
0.087583
0.0877609
0.0878017
0.0877237
0.0875532
0.0873284
0.0871085
0.0869839
0.0871233
0.0876371
0.0779347
0.0792594
0.0806357
0.0819726
0.083215
0.0843317
0.0853031
0.0861171
0.0867677
0.0872548
0.087583
0.0877609
0.0878017
0.0877237
0.0875532
0.0873284
0.0871085
0.0869839
0.0871233
0.0876371
0.0779338
0.0792592
0.0806364
0.0819731
0.0832128
0.0843242
0.0852872
0.0860895
0.0867252
0.0871944
0.0875019
0.0876572
0.0876743
0.0875725
0.0873796
0.0871356
0.0869021
0.0867735
0.086923
0.0874681
0.0779318
0.0792576
0.0806338
0.0819641
0.0831905
0.0842808
0.0852157
0.0859833
0.0865788
0.0870037
0.0872647
0.0873734
0.0873458
0.0872042
0.0869793
0.0867154
0.0864797
0.0863744
0.0865827
0.0872359
0.077926
0.0792457
0.080605
0.0819029
0.0830817
0.0841125
0.0849795
0.0856747
0.0861971
0.0865518
0.086749
0.0868037
0.0867357
0.0865708
0.0863445
0.086107
0.0859339
0.0859396
0.0863208
0.0872242
0.0778998
0.079173
0.0804562
0.0816543
0.0827217
0.0836405
0.0844034
0.0850081
0.0854576
0.0857597
0.0859267
0.0859752
0.0859272
0.0858112
0.0856665
0.0855494
0.0855438
0.0857757
0.0864517
0.0877234
0.0777688
0.0788547
0.0799536
0.0809943
0.0819405
0.0827748
0.0834859
0.0840661
0.084513
0.0848304
0.0850281
0.0851216
0.0851326
0.0850914
0.0850395
0.0850365
0.0851698
0.0855679
0.0864295
0.0878878
0.0772547
0.0780566
0.0790564
0.0800676
0.0809871
0.0817649
0.0823768
0.0828149
0.0830837
0.0831968
0.0831742
0.0830393
0.0828192
0.0825495
0.0822736
0.0820493
0.0819575
0.0821119
0.0826795
0.0837597
0.0747368
0.0761474
0.0771029
0.0776028
0.0777224
0.0775441
0.0771379
0.076561
0.0758603
0.0750743
0.0742344
0.0733694
0.0725064
0.0716697
0.0708743
0.0701594
0.0695792
0.0692106
0.0691647
0.0694988
0.0645676
0.0622809
0.0603763
0.0586536
0.0570601
0.0555704
0.0541689
0.0528462
0.0515962
0.0504154
0.0493006
0.0482511
0.0472681
0.0463566
0.0455291
0.0447646
0.0440844
0.0435233
0.0431329
0.0429385
0.00611
0.00627152
0.00643492
0.00659681
0.00675481
0.00690746
0.00705393
0.00719379
0.00732694
0.00745347
0.00757364
0.00768784
0.00779657
0.00790041
0.00800005
0.00809694
0.00819192
0.0082858
0.00837982
0.00847298
0.00611016
0.00627252
0.00643801
0.00660319
0.00676551
0.00692334
0.00707568
0.00722191
0.0073617
0.00749498
0.00762184
0.00774253
0.00785742
0.00796698
0.00807178
0.00817311
0.00827163
0.00836812
0.00846361
0.0085582
0.0646295
0.0624631
0.0607396
0.0592319
0.0578599
0.0565808
0.0553698
0.0542134
0.0531048
0.0520416
0.0510239
0.050054
0.0491359
0.0482764
0.047486
0.0467549
0.0461054
0.0455644
0.0451656
0.0449249
0.0749498
0.076687
0.078003
0.078855
0.0792948
0.0793966
0.0792308
0.0788587
0.0783324
0.077696
0.0769864
0.0762358
0.0754735
0.0747301
0.0740347
0.073409
0.0729032
0.0725809
0.0725204
0.0727634
0.0778421
0.0789826
0.080138
0.0812384
0.0822477
0.0831487
0.0839292
0.0845809
0.0851005
0.085491
0.0857616
0.0859274
0.08601
0.0860356
0.0860391
0.0860723
0.0862062
0.086537
0.0871868
0.0882334
0.0797711
0.0800921
0.0806217
0.0812877
0.0820334
0.0828202
0.0836181
0.0844008
0.0851464
0.0858379
0.0864648
0.0870236
0.087519
0.0879668
0.0883965
0.0888564
0.0894213
0.0901992
0.0913373
0.0929411
0.0801885
0.0807535
0.0813543
0.0819848
0.0826341
0.0832923
0.0839483
0.0845893
0.085202
0.0857743
0.0862977
0.0867682
0.0871886
0.0875711
0.0879411
0.088343
0.0888486
0.0895669
0.0906558
0.0922407
0.0802863
0.0809935
0.0817348
0.0824847
0.0832238
0.0839392
0.0846201
0.0852552
0.085834
0.086347
0.0867875
0.0871527
0.0874454
0.0876764
0.0878682
0.088061
0.0883209
0.0887505
0.0895065
0.090722
0.0803052
0.0810472
0.081844
0.0826662
0.0834862
0.0842837
0.0850416
0.0857438
0.086376
0.0869258
0.0873839
0.0877452
0.0880098
0.0881853
0.0882899
0.088358
0.0884479
0.0886522
0.0891185
0.0899756
0.080309
0.081056
0.0818656
0.082711
0.0835648
0.0844046
0.085211
0.0859654
0.0866504
0.0872509
0.0877546
0.0881534
0.0884441
0.0886307
0.0887273
0.0887631
0.0887896
0.0888905
0.0892041
0.0898503
0.0803101
0.0810572
0.0818682
0.0827186
0.0835816
0.0844354
0.0852601
0.0860368
0.0867472
0.087375
0.0879066
0.0883323
0.0886472
0.0888532
0.088962
0.0889998
0.0890145
0.0890848
0.0893435
0.0899046
0.0803101
0.0810572
0.0818682
0.0827186
0.0835816
0.0844354
0.0852601
0.0860368
0.0867472
0.087375
0.0879066
0.0883323
0.0886472
0.0888532
0.088962
0.0889998
0.0890145
0.0890848
0.0893435
0.0899046
0.080309
0.081056
0.0818656
0.082711
0.0835648
0.0844046
0.085211
0.0859654
0.0866504
0.0872509
0.0877546
0.0881534
0.0884441
0.0886307
0.0887273
0.0887631
0.0887896
0.0888905
0.0892041
0.0898503
0.0803052
0.0810472
0.081844
0.0826662
0.0834862
0.0842837
0.0850416
0.0857438
0.086376
0.0869258
0.0873839
0.0877452
0.0880098
0.0881853
0.0882899
0.088358
0.0884479
0.0886522
0.0891185
0.0899756
0.0802863
0.0809935
0.0817348
0.0824847
0.0832238
0.0839392
0.08462
0.0852552
0.085834
0.086347
0.0867875
0.0871527
0.0874454
0.0876763
0.0878682
0.088061
0.0883209
0.0887505
0.0895064
0.0907219
0.0801885
0.0807535
0.0813543
0.0819848
0.0826341
0.0832923
0.0839483
0.0845893
0.085202
0.0857743
0.0862976
0.0867681
0.0871886
0.0875711
0.0879411
0.0883429
0.0888485
0.0895668
0.0906557
0.0922406
0.079771
0.0800921
0.0806217
0.0812877
0.0820334
0.0828202
0.083618
0.0844008
0.0851463
0.0858378
0.0864648
0.0870235
0.087519
0.0879667
0.0883964
0.0888563
0.0894212
0.0901991
0.0913372
0.092941
0.0778421
0.0789826
0.080138
0.0812384
0.0822477
0.0831487
0.0839292
0.0845809
0.0851005
0.085491
0.0857615
0.0859273
0.0860099
0.0860356
0.0860391
0.0860722
0.0862062
0.086537
0.0871868
0.0882334
0.0749498
0.076687
0.078003
0.078855
0.0792948
0.0793966
0.0792308
0.0788586
0.0783324
0.0776959
0.0769864
0.0762357
0.0754735
0.0747301
0.0740346
0.073409
0.0729032
0.072581
0.0725206
0.0727636
0.0646295
0.0624631
0.0607396
0.0592319
0.0578599
0.0565808
0.0553698
0.0542134
0.0531048
0.0520416
0.0510239
0.050054
0.0491359
0.0482764
0.047486
0.0467549
0.0461055
0.0455645
0.0451657
0.0449251
0.00611016
0.00627252
0.00643801
0.00660319
0.00676551
0.00692334
0.00707568
0.00722191
0.0073617
0.00749498
0.00762184
0.00774253
0.00785742
0.00796698
0.00807178
0.00817312
0.00827163
0.00836812
0.00846361
0.0085582
0.00611012
0.00627249
0.00643834
0.00660439
0.00676816
0.00692807
0.00708312
0.00723262
0.00737616
0.00751351
0.00764462
0.00776958
0.00788862
0.00800208
0.00811039
0.00821408
0.00831391
0.00841133
0.00850718
0.00860201
0.0646391
0.0624867
0.0607994
0.0593532
0.0580622
0.056877
0.0557673
0.0547149
0.0537092
0.052745
0.0518203
0.0509363
0.0500964
0.0493068
0.0485769
0.0479193
0.04735
0.0468649
0.0464907
0.0462419
0.0749886
0.0768007
0.0782445
0.0792645
0.0798916
0.0801839
0.0802014
0.0799999
0.0796291
0.0791324
0.0785479
0.0779091
0.0772474
0.0765934
0.0759799
0.0754455
0.0750224
0.0747534
0.0746968
0.0748872
0.0779882
0.0793381
0.0807069
0.0820011
0.083177
0.0842185
0.0851193
0.0858782
0.0864987
0.0869893
0.0873632
0.0876382
0.0878373
0.0879899
0.0881336
0.088312
0.0885834
0.0890265
0.089732
0.0907619
0.0802545
0.0808675
0.0815191
0.0822069
0.0829229
0.0836602
0.0844101
0.0851615
0.0859027
0.0866231
0.0873154
0.0879769
0.0886118
0.0892333
0.0898652
0.0905483
0.0913442
0.0923398
0.0936433
0.095337
0.0819669
0.0820531
0.0822775
0.082604
0.0830017
0.0834506
0.0839378
0.0844528
0.0849865
0.0855305
0.0860786
0.0866278
0.08718
0.0877447
0.0883431
0.0890125
0.0898128
0.0908324
0.0921888
0.0939805
0.0823166
0.0826281
0.0829475
0.0832829
0.0836334
0.0839965
0.0843696
0.084749
0.0851298
0.0855068
0.0858755
0.0862337
0.0865832
0.0869327
0.0873013
0.0877235
0.0882563
0.0889861
0.0900328
0.0915061
0.0823933
0.0828189
0.0832533
0.0836892
0.0841189
0.0845371
0.0849401
0.0853243
0.0856853
0.0860181
0.0863184
0.0865834
0.0868138
0.087016
0.0872062
0.0874148
0.0876936
0.0881231
0.08882
0.089897
0.0824075
0.0828609
0.0833391
0.0838311
0.0843234
0.0848051
0.0852677
0.0857038
0.0861057
0.0864661
0.0867781
0.0870366
0.0872398
0.0873914
0.0875039
0.0876036
0.087737
0.0879783
0.0884389
0.0892298
0.08241
0.0828678
0.0833563
0.0838659
0.0843822
0.084893
0.0853878
0.0858571
0.0862912
0.0866804
0.087016
0.0872907
0.0875007
0.0876475
0.0877412
0.0878053
0.0878829
0.0880444
0.0883974
0.0890507
0.08241
0.0828678
0.0833563
0.0838659
0.0843822
0.084893
0.0853878
0.0858571
0.0862912
0.0866804
0.087016
0.0872907
0.0875007
0.0876475
0.0877412
0.0878053
0.0878828
0.0880444
0.0883973
0.0890507
0.0824075
0.0828609
0.0833391
0.0838311
0.0843234
0.0848051
0.0852677
0.0857038
0.0861057
0.0864661
0.086778
0.0870366
0.0872398
0.0873913
0.0875039
0.0876036
0.0877369
0.0879783
0.0884388
0.0892297
0.0823933
0.0828189
0.0832533
0.0836892
0.0841189
0.0845371
0.0849401
0.0853243
0.0856852
0.0860181
0.0863184
0.0865834
0.0868138
0.087016
0.0872062
0.0874148
0.0876935
0.088123
0.0888199
0.0898968
0.0823166
0.0826281
0.0829475
0.0832829
0.0836333
0.0839965
0.0843696
0.084749
0.0851298
0.0855068
0.0858755
0.0862337
0.0865832
0.0869327
0.0873012
0.0877234
0.0882562
0.088986
0.0900327
0.0915059
0.0819669
0.0820531
0.0822775
0.082604
0.0830017
0.0834506
0.0839377
0.0844528
0.0849865
0.0855305
0.0860786
0.0866277
0.0871799
0.0877446
0.088343
0.0890124
0.0898126
0.0908322
0.0921885
0.0939802
0.0802545
0.0808675
0.0815191
0.0822069
0.0829229
0.0836602
0.08441
0.0851615
0.0859027
0.0866231
0.0873153
0.0879768
0.0886117
0.0892332
0.0898651
0.0905481
0.091344
0.0923396
0.0936431
0.0953368
0.0779882
0.0793381
0.0807069
0.0820011
0.083177
0.0842185
0.0851193
0.0858782
0.0864987
0.0869892
0.0873631
0.0876381
0.0878372
0.0879898
0.0881335
0.0883119
0.0885833
0.0890264
0.0897319
0.0907618
0.0749886
0.0768007
0.0782445
0.0792645
0.0798916
0.0801839
0.0802014
0.0799999
0.079629
0.0791324
0.0785478
0.0779091
0.0772473
0.0765933
0.0759798
0.0754455
0.0750223
0.0747534
0.0746969
0.0748873
0.0646391
0.0624867
0.0607994
0.0593532
0.0580622
0.056877
0.0557673
0.0547148
0.0537092
0.052745
0.0518203
0.0509363
0.0500964
0.0493068
0.0485769
0.0479193
0.0473501
0.046865
0.0464908
0.046242
0.00611012
0.00627249
0.00643834
0.00660439
0.00676816
0.00692807
0.00708312
0.00723262
0.00737616
0.00751351
0.00764462
0.00776958
0.00788863
0.00800208
0.00811039
0.00821408
0.00831391
0.00841133
0.00850718
0.00860201
0.00611009
0.00627242
0.00643832
0.00660457
0.00676872
0.00692921
0.00708504
0.00723556
0.00738034
0.00751913
0.00765186
0.0077786
0.00789952
0.00801488
0.00812508
0.00823055
0.00833183
0.00843001
0.00852616
0.00862102
0.0646417
0.062489
0.0608062
0.0593746
0.0581088
0.0569585
0.055892
0.0548894
0.0539385
0.0530323
0.0521673
0.0513431
0.0505621
0.0498291
0.0491521
0.0485424
0.0480149
0.0475747
0.0472309
0.0469972
0.0749956
0.0768169
0.0782896
0.0793642
0.0800683
0.0804543
0.0805769
0.0804867
0.0802296
0.0798458
0.0793709
0.078837
0.0782739
0.077711
0.0771795
0.0767137
0.0763536
0.0761308
0.0760838
0.0762446
0.0780156
0.0794163
0.0808698
0.0822771
0.0835831
0.0847617
0.0857998
0.0866923
0.0874408
0.0880533
0.0885435
0.0889304
0.0892377
0.0894953
0.0897397
0.0900164
0.0903789
0.0908862
0.0916105
0.0926067
0.0803662
0.0811409
0.0819588
0.082799
0.0836466
0.0844937
0.0853343
0.0861618
0.0869701
0.0877541
0.0885118
0.0892452
0.0899621
0.0906778
0.0914171
0.0922176
0.0931317
0.0942306
0.0955985
0.0973053
0.0823761
0.0827297
0.0830932
0.0834783
0.0838875
0.0843217
0.0847813
0.085266
0.0857741
0.0863039
0.0868547
0.087428
0.0880295
0.0886715
0.0893756
0.0901765
0.0911262
0.0922981
0.0937834
0.095665
0.0838961
0.0838775
0.0839557
0.0841052
0.0843041
0.0845377
0.0847974
0.085078
0.0853762
0.0856897
0.0860181
0.0863635
0.086732
0.0871358
0.0875961
0.0881471
0.0888406
0.0897509
0.0909742
0.0926041
0.0841939
0.0843762
0.0845534
0.0847344
0.0849207
0.0851109
0.0853035
0.085497
0.0856896
0.0858796
0.0860662
0.0862506
0.0864375
0.0866374
0.0868694
0.0871652
0.0875744
0.0881693
0.0890468
0.0903068
0.0842562
0.084533
0.0848061
0.085072
0.0853262
0.0855651
0.0857863
0.0859879
0.0861683
0.0863257
0.086459
0.0865689
0.0866592
0.0867387
0.0868246
0.0869466
0.0871514
0.0875091
0.0881157
0.0890742
0.084267
0.0845665
0.084874
0.0851819
0.0854809
0.0857628
0.0860217
0.0862529
0.0864528
0.0866183
0.0867472
0.0868392
0.0868971
0.086929
0.086951
0.0869913
0.0870954
0.0873319
0.0877962
0.0885926
0.084267
0.0845665
0.084874
0.0851819
0.0854809
0.0857628
0.0860217
0.0862529
0.0864528
0.0866183
0.0867472
0.0868392
0.0868971
0.086929
0.086951
0.0869913
0.0870954
0.0873319
0.0877962
0.0885926
0.0842562
0.084533
0.0848061
0.085072
0.0853262
0.0855651
0.0857863
0.0859879
0.0861683
0.0863257
0.086459
0.0865689
0.0866592
0.0867386
0.0868246
0.0869465
0.0871513
0.0875091
0.0881157
0.0890741
0.0841939
0.0843762
0.0845534
0.0847344
0.0849207
0.0851109
0.0853035
0.085497
0.0856896
0.0858796
0.0860662
0.0862505
0.0864375
0.0866373
0.0868693
0.0871651
0.0875743
0.0881692
0.0890466
0.0903066
0.0838961
0.0838775
0.0839557
0.0841052
0.0843041
0.0845377
0.0847974
0.085078
0.0853762
0.0856897
0.0860181
0.0863635
0.086732
0.0871358
0.087596
0.088147
0.0888405
0.0897507
0.090974
0.0926038
0.0823761
0.0827297
0.0830931
0.0834783
0.0838875
0.0843217
0.0847813
0.085266
0.085774
0.0863039
0.0868546
0.0874279
0.0880294
0.0886714
0.0893755
0.0901763
0.091126
0.0922978
0.0937831
0.0956646
0.0803662
0.0811409
0.0819588
0.082799
0.0836466
0.0844937
0.0853342
0.0861618
0.08697
0.087754
0.0885117
0.0892451
0.089962
0.0906776
0.0914169
0.0922174
0.0931315
0.0942304
0.0955982
0.097305
0.0780156
0.0794163
0.0808698
0.0822771
0.0835831
0.0847616
0.0857998
0.0866923
0.0874407
0.0880532
0.0885435
0.0889303
0.0892376
0.0894952
0.0897396
0.0900163
0.0903787
0.0908861
0.0916104
0.0926065
0.0749956
0.0768169
0.0782896
0.0793642
0.0800683
0.0804543
0.0805768
0.0804867
0.0802295
0.0798457
0.0793709
0.0788369
0.0782738
0.077711
0.0771794
0.0767136
0.0763536
0.0761307
0.0760838
0.0762446
0.0646417
0.062489
0.0608062
0.0593746
0.0581088
0.0569585
0.055892
0.0548894
0.0539385
0.0530322
0.0521673
0.0513431
0.0505621
0.0498291
0.0491521
0.0485424
0.0480149
0.0475747
0.047231
0.0469973
0.00611009
0.00627242
0.00643832
0.00660457
0.00676872
0.00692921
0.00708504
0.00723556
0.00738034
0.00751913
0.00765187
0.0077786
0.00789952
0.00801489
0.00812508
0.00823055
0.00833183
0.00843001
0.00852616
0.00862102
0.00611007
0.00627238
0.00643831
0.00660466
0.00676899
0.00692976
0.00708599
0.00723703
0.00738245
0.00752202
0.00765565
0.00778336
0.00790531
0.00802173
0.00813293
0.00823932
0.00834136
0.00843958
0.00853519
0.00862923
0.064643
0.0624892
0.0608057
0.0593765
0.0581174
0.0569783
0.0559274
0.0549449
0.0540184
0.0531406
0.0523076
0.0515183
0.0507742
0.0500794
0.0494406
0.0488674
0.0483726
0.0479714
0.0476637
0.0474563
0.0749977
0.0768179
0.0782935
0.0793803
0.0801078
0.080528
0.0806944
0.0806568
0.0804592
0.0801406
0.0797348
0.079272
0.0787802
0.0782869
0.0778202
0.0774109
0.0770934
0.0769054
0.076875
0.0770258
0.0780206
0.0794277
0.0809001
0.082344
0.0837039
0.0849512
0.0860698
0.0870515
0.0878953
0.0886071
0.0891986
0.0896868
0.090094
0.0904479
0.0907825
0.0911388
0.0915662
0.0921224
0.0928581
0.0938272
0.0803865
0.0811997
0.0820806
0.0830047
0.0839499
0.0849018
0.0858496
0.086784
0.0876972
0.0885839
0.0894424
0.0902754
0.0910912
0.0919052
0.0927415
0.0936349
0.0946324