/*--------------------------------*- C++ -*----------------------------------*\
  =========                 |
  \\      /  F ield         | OpenFOAM: The Open Source CFD Toolbox
   \\    /   O peration     | Website:  https://openfoam.org
    \\  /    A nd           | Version:  10
     \\/     M anipulation  |
\*---------------------------------------------------------------------------*/
FoamFile
{
    format      ascii;
    class       volVectorField;
    location    "400";
    object      U;
}
// * * * * * * * * * * * * * * * * * * * * * * * * * * * * * * * * * * * * * //

dimensions      [0 1 -1 0 0 0 0];

internalField   nonuniform List<vector> 
112000
(
(347.908 -14.0428 13.9477)
(350.766 -11.0457 10.8469)
(352.321 -9.27574 8.97116)
(352.849 -8.07552 7.66397)
(353.103 -7.17382 6.65198)
(353.472 -6.47737 5.83925)
(354.088 -5.93996 5.1757)
(355.025 -5.52923 4.6238)
(356.363 -5.22401 4.15598)
(358.202 -5.01379 3.75321)
(360.656 -4.89697 3.40226)
(363.864 -4.87937 3.09335)
(368.004 -4.97474 2.81881)
(373.308 -5.20785 2.57224)
(380.097 -5.62136 2.34787)
(388.828 -6.29031 2.13986)
(400.2 -7.35536 1.94126)
(415.384 -9.10414 1.74216)
(436.18 -12.1938 1.51641)
(472.188 -18.2648 1.33178)
(349.343 -15.2845 -3.55922)
(351.512 -11.5936 -5.40074)
(353.411 -9.22824 -5.86296)
(354.999 -7.63652 -5.82808)
(356.527 -6.48715 -5.65061)
(358.191 -5.63481 -5.41691)
(360.088 -5.0069 -5.15242)
(362.281 -4.55684 -4.87683)
(364.841 -4.25382 -4.60471)
(367.857 -4.07968 -4.34389)
(371.435 -4.02635 -4.09782)
(375.709 -4.09456 -3.86824)
(380.849 -4.29415 -3.65658)
(387.079 -4.64665 -3.46472)
(394.71 -5.19159 -3.29558)
(404.185 -6.0003 -3.15399)
(416.184 -7.20752 -3.04803)
(431.852 -9.08865 -2.99175)
(452.928 -12.2837 -3.01551)
(489.077 -18.3609 -3.10575)
(349.084 -15.2391 0.484853)
(351.421 -11.393 0.946636)
(353.787 -8.85175 1.36528)
(356.119 -7.13228 1.65471)
(358.437 -5.90453 1.79454)
(360.828 -5.00419 1.82569)
(363.379 -4.3478 1.78997)
(366.166 -3.8843 1.71127)
(369.268 -3.57986 1.60185)
(372.777 -3.41353 1.4691)
(376.803 -3.37492 1.31773)
(381.483 -3.46285 1.14986)
(386.988 -3.68568 0.964982)
(393.545 -4.0637 0.759895)
(401.462 -4.63516 0.528344)
(411.185 -5.46979 0.260156)
(423.388 -6.70021 -0.0604508)
(439.217 -8.59795 -0.458105)
(460.385 -11.7997 -0.976497)
(496.671 -17.8696 -1.63601)
(349.386 -15.2066 -0.0696951)
(352.168 -11.4131 -0.399244)
(354.819 -8.93127 -0.824927)
(357.319 -7.26187 -1.21187)
(359.768 -6.08426 -1.52694)
(362.284 -5.23376 -1.7745)
(364.966 -4.62333 -1.96443)
(367.897 -4.2001 -2.10821)
(371.157 -3.92973 -2.21828)
(374.836 -3.79106 -2.30645)
(379.041 -3.77356 -2.3833)
(383.905 -3.87605 -2.45865)
(389.599 -4.10683 -2.54235)
(396.347 -4.48605 -2.64518)
(404.456 -5.05164 -2.77981)
(414.373 -5.87281 -2.96209)
(426.777 -7.08126 -3.21296)
(442.819 -8.94699 -3.56139)
(464.214 -12.1054 -4.0515)
(500.911 -18.1214 -4.71033)
(349.386 -15.1666 -0.111269)
(352.146 -11.3663 -0.249273)
(354.716 -8.87298 -0.355175)
(357.129 -7.16986 -0.402795)
(359.538 -5.94691 -0.409263)
(362.064 -5.04943 -0.402037)
(364.795 -4.39402 -0.398728)
(367.8 -3.92913 -0.408058)
(371.155 -3.6212 -0.435071)
(374.943 -3.44947 -0.483651)
(379.268 -3.40333 -0.557389)
(384.261 -3.48112 -0.660273)
(390.093 -3.6904 -0.797491)
(396.989 -4.0504 -0.976274)
(405.259 -4.59798 -1.2068)
(415.353 -5.4012 -1.50339)
(427.958 -6.59049 -1.88613)
(444.237 -8.43434 -2.38333)
(465.911 -11.5667 -3.03637)
(503.039 -17.5522 -3.8743)
(349.385 -15.1517 -0.108699)
(352.144 -11.349 -0.229541)
(354.719 -8.86201 -0.347037)
(357.148 -7.16457 -0.460263)
(359.584 -5.94738 -0.572543)
(362.147 -5.05877 -0.687186)
(364.916 -4.41561 -0.804533)
(367.962 -3.96492 -0.923645)
(371.359 -3.67169 -1.04464)
(375.193 -3.514 -1.16942)
(379.571 -3.4803 -1.30153)
(384.624 -3.56813 -1.44596)
(390.525 -3.78435 -1.60934)
(397.5 -4.14758 -1.80034)
(405.864 -4.69413 -2.03028)
(416.069 -5.49149 -2.31395)
(428.81 -6.66944 -2.67083)
(445.259 -8.49562 -3.12661)
(467.144 -11.603 -3.71606)
(504.635 -17.5582 -4.46654)
(349.382 -15.1444 -0.0898138)
(352.132 -11.3381 -0.185994)
(354.696 -8.85195 -0.273722)
(357.111 -7.15449 -0.351139)
(359.534 -5.93355 -0.41915)
(362.085 -5.03801 -0.48034)
(364.847 -4.38576 -0.537678)
(367.891 -3.92432 -0.594348)
(371.294 -3.61899 -0.654065)
(375.141 -3.44826 -0.721133)
(379.541 -3.40096 -0.800348)
(384.625 -3.47488 -0.89706)
(390.568 -3.67705 -1.01747)
(397.598 -4.0261 -1.16913)
(406.031 -4.55822 -1.36151)
(416.324 -5.34064 -1.60675)
(429.175 -6.50275 -1.92053)
(445.765 -8.31154 -2.3232)
(467.826 -11.3989 -2.84114)
(505.587 -17.3334 -3.49769)
(349.38 -15.1406 -0.0656496)
(352.123 -11.3318 -0.135674)
(354.678 -8.84605 -0.19908)
(357.087 -7.14992 -0.255914)
(359.508 -5.9294 -0.308955)
(362.061 -5.03347 -0.361492)
(364.829 -4.38082 -0.415986)
(367.883 -3.91944 -0.474203)
(371.297 -3.61468 -0.537838)
(375.161 -3.44486 -0.608908)
(379.58 -3.39864 -0.689907)
(384.69 -3.47357 -0.783956)
(390.663 -3.67639 -0.895043)
(397.731 -4.02542 -1.02835)
(406.212 -4.55654 -1.19064)
(416.566 -5.3366 -1.39068)
(429.494 -6.49461 -1.63977)
(446.183 -8.29698 -1.95235)
(468.369 -11.3748 -2.34642)
(506.331 -17.2993 -2.84128)
(349.379 -15.1387 -0.0397609)
(352.118 -11.3285 -0.0822136)
(354.667 -8.84277 -0.120614)
(357.071 -7.14742 -0.154919)
(359.489 -5.92723 -0.186793)
(362.043 -5.03077 -0.21806)
(364.811 -4.37693 -0.249887)
(367.866 -3.91388 -0.283068)
(371.284 -3.60698 -0.318559)
(375.153 -3.43453 -0.357739)
(379.58 -3.38514 -0.40244)
(384.701 -3.45637 -0.45495)
(390.69 -3.65497 -0.518109)
(397.78 -3.99927 -0.595457)
(406.291 -4.52512 -0.691448)
(416.683 -5.29931 -0.811682)
(429.662 -6.45073 -0.963179)
(446.415 -8.24548 -1.1547)
(468.685 -11.314 -1.39653)
(506.769 -17.2297 -1.70275)
(349.378 -15.1379 -0.0133123)
(352.115 -11.3271 -0.0275457)
(354.661 -8.84136 -0.040439)
(357.063 -7.14638 -0.0519623)
(359.481 -5.92645 -0.0626998)
(362.034 -5.0299 -0.0733363)
(364.804 -4.37573 -0.0843563)
(367.861 -3.91226 -0.0961238)
(371.281 -3.60492 -0.109054)
(375.154 -3.43203 -0.123684)
(379.587 -3.38218 -0.140667)
(384.715 -3.45295 -0.160769)
(390.714 -3.65103 -0.184899)
(397.816 -3.99471 -0.214177)
(406.342 -4.51977 -0.250005)
(416.754 -5.29291 -0.294158)
(429.758 -6.44286 -0.348869)
(446.543 -8.23552 -0.416938)
(468.855 -11.3008 -0.501522)
(507.002 -17.2139 -0.608325)
(349.378 -15.1379 0.0132806)
(352.115 -11.3271 0.0274785)
(354.661 -8.84136 0.0403352)
(357.063 -7.14638 0.0518197)
(359.481 -5.92645 0.0625152)
(362.034 -5.0299 0.0731053)
(364.804 -4.37573 0.0840735)
(367.861 -3.91226 0.0957822)
(371.281 -3.60492 0.108645)
(375.154 -3.43203 0.123198)
(379.587 -3.38218 0.140091)
(384.715 -3.45295 0.160087)
(390.714 -3.65103 0.184094)
(397.816 -3.99471 0.213227)
(406.342 -4.51977 0.248885)
(416.754 -5.29291 0.292837)
(429.758 -6.44286 0.34731)
(446.543 -8.23551 0.415098)
(468.855 -11.3008 0.499353)
(507.002 -17.2139 0.60576)
(349.379 -15.1387 0.0397299)
(352.118 -11.3285 0.0821478)
(354.667 -8.84277 0.120513)
(357.071 -7.14742 0.15478)
(359.49 -5.92723 0.186613)
(362.043 -5.03077 0.217834)
(364.811 -4.37693 0.249611)
(367.866 -3.91388 0.282733)
(371.284 -3.60698 0.318158)
(375.153 -3.43453 0.357263)
(379.58 -3.38514 0.401875)
(384.701 -3.45637 0.454283)
(390.69 -3.65497 0.517321)
(397.78 -3.99927 0.594527)
(406.291 -4.52511 0.690351)
(416.684 -5.29931 0.810388)
(429.662 -6.45072 0.961653)
(446.415 -8.24547 1.1529)
(468.685 -11.314 1.3944)
(506.77 -17.2296 1.70024)
(349.38 -15.1406 0.06562)
(352.123 -11.3318 0.135611)
(354.678 -8.84605 0.198983)
(357.087 -7.14992 0.25578)
(359.508 -5.9294 0.308782)
(362.061 -5.03347 0.361276)
(364.83 -4.38082 0.415721)
(367.883 -3.91944 0.473883)
(371.297 -3.61468 0.537456)
(375.161 -3.44486 0.608453)
(379.58 -3.39864 0.689368)
(384.69 -3.47357 0.783319)
(390.663 -3.67639 0.894291)
(397.731 -4.02542 1.02747)
(406.213 -4.55653 1.1896)
(416.567 -5.33659 1.38945)
(429.495 -6.4946 1.63832)
(446.184 -8.29697 1.95063)
(468.37 -11.3748 2.34439)
(506.332 -17.2992 2.83889)
(349.382 -15.1444 0.0897864)
(352.132 -11.3381 0.185936)
(354.696 -8.85195 0.273632)
(357.111 -7.15449 0.351014)
(359.534 -5.93355 0.418989)
(362.085 -5.03801 0.480138)
(364.847 -4.38575 0.53743)
(367.892 -3.92431 0.594049)
(371.294 -3.61899 0.653707)
(375.141 -3.44826 0.720707)
(379.541 -3.40095 0.799844)
(384.626 -3.47488 0.896463)
(390.568 -3.67705 1.01677)
(397.598 -4.02609 1.1683)
(406.031 -4.55821 1.36053)
(416.325 -5.34062 1.60559)
(429.176 -6.50273 1.91917)
(445.766 -8.31151 2.32159)
(467.827 -11.3989 2.83924)
(505.588 -17.3333 3.49545)
(349.385 -15.1517 0.108674)
(352.144 -11.349 0.229489)
(354.719 -8.86201 0.346956)
(357.148 -7.16457 0.460151)
(359.584 -5.94738 0.572398)
(362.147 -5.05876 0.687004)
(364.916 -4.4156 0.80431)
(367.962 -3.96492 0.923377)
(371.359 -3.67169 1.04432)
(375.194 -3.51399 1.16904)
(379.571 -3.4803 1.30108)
(384.625 -3.56812 1.44543)
(390.525 -3.78434 1.60871)
(397.5 -4.14757 1.7996)
(405.864 -4.69412 2.02941)
(416.07 -5.49147 2.31293)
(428.811 -6.66941 2.66962)
(445.26 -8.49559 3.12518)
(467.145 -11.6029 3.71437)
(504.637 -17.5582 4.46454)
(349.386 -15.1666 0.111248)
(352.146 -11.3663 0.249228)
(354.716 -8.87298 0.355106)
(357.129 -7.16986 0.402699)
(359.538 -5.94691 0.409136)
(362.064 -5.04942 0.401877)
(364.795 -4.39402 0.398531)
(367.801 -3.92913 0.407821)
(371.155 -3.62119 0.434787)
(374.943 -3.44946 0.483313)
(379.268 -3.40332 0.556989)
(384.262 -3.48111 0.6598)
(390.094 -3.69039 0.796935)
(396.989 -4.05038 0.975619)
(405.26 -4.59796 1.20603)
(415.354 -5.40117 1.50248)
(427.959 -6.59045 1.88506)
(444.238 -8.43429 2.38206)
(465.912 -11.5666 3.03488)
(503.041 -17.5521 3.87254)
(349.386 -15.2065 0.0696788)
(352.168 -11.4131 0.399209)
(354.819 -8.93127 0.824872)
(357.319 -7.26186 1.21179)
(359.769 -6.08425 1.52684)
(362.284 -5.23376 1.77438)
(364.966 -4.62332 1.96428)
(367.897 -4.2001 2.10803)
(371.157 -3.92972 2.21806)
(374.836 -3.79105 2.30619)
(379.041 -3.77355 2.383)
(383.906 -3.87604 2.45829)
(389.6 -4.10682 2.54192)
(396.347 -4.48603 2.64468)
(404.457 -5.05162 2.77922)
(414.374 -5.87278 2.96139)
(426.778 -7.08122 3.21213)
(442.82 -8.94694 3.56041)
(464.216 -12.1053 4.05034)
(500.914 -18.1213 4.70895)
(349.084 -15.2391 -0.484864)
(351.421 -11.393 -0.946663)
(353.787 -8.85175 -1.36532)
(356.119 -7.13228 -1.65477)
(358.437 -5.90452 -1.79462)
(360.828 -5.00418 -1.8258)
(363.379 -4.34779 -1.79009)
(366.166 -3.88429 -1.71142)
(369.268 -3.57984 -1.60203)
(372.777 -3.41351 -1.46932)
(376.804 -3.3749 -1.31799)
(381.484 -3.46282 -1.15016)
(386.989 -3.68565 -0.965334)
(393.546 -4.06367 -0.760308)
(401.463 -4.63512 -0.528828)
(411.186 -5.46975 -0.260724)
(423.39 -6.70016 0.0597841)
(439.219 -8.59789 0.45732)
(460.388 -11.7997 0.975567)
(496.674 -17.8695 1.63491)
(349.343 -15.2845 3.55922)
(351.512 -11.5936 5.40075)
(353.411 -9.22823 5.86296)
(354.999 -7.6365 5.82806)
(356.527 -6.48714 5.65058)
(358.191 -5.6348 5.41687)
(360.088 -5.00688 5.15237)
(362.281 -4.55682 4.87676)
(364.842 -4.2538 4.60464)
(367.857 -4.07966 4.3438)
(371.436 -4.02633 4.09771)
(375.71 -4.09454 3.8681)
(380.85 -4.29411 3.65642)
(387.08 -4.64661 3.46453)
(394.711 -5.19155 3.29535)
(404.186 -6.00025 3.15371)
(416.185 -7.20746 3.0477)
(431.854 -9.08858 2.99135)
(452.93 -12.2836 3.01502)
(489.08 -18.3607 3.10515)
(347.908 -14.0428 -13.9477)
(350.766 -11.0457 -10.8468)
(352.322 -9.27572 -8.97115)
(352.849 -8.07549 -7.66396)
(353.103 -7.17379 -6.65197)
(353.472 -6.47734 -5.83924)
(354.088 -5.93993 -5.17569)
(355.025 -5.5292 -4.6238)
(356.364 -5.22398 -4.15597)
(358.203 -5.01375 -3.75321)
(360.657 -4.89693 -3.40226)
(363.865 -4.87932 -3.09336)
(368.005 -4.97469 -2.81882)
(373.309 -5.2078 -2.57226)
(380.098 -5.6213 -2.34791)
(388.829 -6.29024 -2.13991)
(400.201 -7.35528 -1.94133)
(415.386 -9.10404 -1.74226)
(436.183 -12.1937 -1.51653)
(472.191 -18.2647 -1.33196)
(349.328 3.26233 15.1787)
(351.449 4.77615 11.3681)
(353.281 4.91522 8.87892)
(354.783 4.54451 7.15614)
(356.209 4.00674 5.8651)
(357.754 3.37514 4.85613)
(359.515 2.66084 4.05157)
(361.551 1.86781 3.39893)
(363.935 0.992248 2.86024)
(366.753 0.0191436 2.40764)
(370.104 -1.07756 2.02123)
(374.112 -2.33605 1.68573)
(378.93 -3.80927 1.38906)
(384.759 -5.57275 1.12111)
(391.862 -7.73948 0.872816)
(400.596 -10.4883 0.635307)
(411.452 -14.1201 0.398951)
(425.117 -19.1761 0.151601)
(442.319 -26.7164 -0.119909)
(466.098 -38.6735 -0.366817)
(403.051 1.64722 -1.93297)
(399.661 2.49322 -3.09975)
(397.286 2.42431 -3.36709)
(395.873 1.94014 -3.23918)
(395.181 1.32252 -3.0061)
(395.081 0.652634 -2.75933)
(395.515 -0.0585784 -2.52217)
(396.463 -0.815053 -2.30547)
(397.935 -1.62778 -2.11586)
(399.966 -2.51618 -1.95608)
(402.624 -3.50904 -1.82767)
(406.007 -4.64509 -1.73142)
(410.246 -5.97681 -1.66842)
(415.524 -7.57789 -1.64085)
(422.087 -9.55736 -1.65289)
(430.276 -12.0863 -1.71169)
(440.565 -15.4519 -1.82886)
(453.634 -20.1714 -2.02346)
(470.194 -27.2844 -2.31679)
(493.22 -38.5758 -2.67624)
(405.502 0.702342 0.373647)
(404.099 1.15627 0.639211)
(403.372 1.05131 0.81552)
(403.366 0.616613 0.89576)
(403.831 0.0693345 0.887204)
(404.643 -0.513182 0.816041)
(405.785 -1.12486 0.708836)
(407.286 -1.77768 0.581548)
(409.192 -2.48812 0.441308)
(411.567 -3.27791 0.290877)
(414.495 -4.17563 0.1307)
(418.086 -5.21895 -0.0408452)
(422.483 -6.45896 -0.227489)
(427.872 -7.9675 -0.435256)
(434.507 -9.85075 -0.672957)
(442.731 -12.2754 -0.953038)
(453.023 -15.5221 -1.29289)
(466.063 -20.0985 -1.71726)
(482.555 -27.0377 -2.25855)
(505.47 -38.0756 -2.90628)
(405.906 0.699889 -0.145738)
(405.16 1.01015 -0.370761)
(405.079 0.776529 -0.643466)
(405.625 0.231214 -0.887776)
(406.586 -0.420617 -1.07288)
(407.859 -1.093 -1.2047)
(409.434 -1.7716 -1.29775)
(411.341 -2.4672 -1.36559)
(413.627 -3.19856 -1.42012)
(416.356 -3.99008 -1.47165)
(419.613 -4.87296 -1.52911)
(423.509 -5.88714 -1.60068)
(428.188 -7.08522 -1.69476)
(433.84 -8.53964 -1.8208)
(440.719 -10.3563 -1.99027)
(449.172 -12.7007 -2.21776)
(459.683 -15.851 -2.52256)
(472.94 -20.3098 -2.93081)
(489.645 -27.1058 -3.4778)
(512.845 -37.962 -4.16949)
(405.895 0.815246 -0.141782)
(405.182 1.09836 -0.261655)
(405.183 0.824075 -0.354961)
(405.85 0.273756 -0.423321)
(406.977 -0.362972 -0.471704)
(408.458 -1.01401 -0.511328)
(410.272 -1.6686 -0.552317)
(412.434 -2.33839 -0.600891)
(414.982 -3.04315 -0.661016)
(417.974 -3.80797 -0.736151)
(421.493 -4.66402 -0.83006)
(425.648 -5.65072 -0.947319)
(430.583 -6.81966 -1.09386)
(436.49 -8.24199 -1.27762)
(443.625 -10.022 -1.50924)
(452.341 -12.3231 -1.80305)
(463.126 -15.421 -2.17834)
(476.679 -19.8147 -2.66107)
(493.706 -26.5284 -3.2858)
(517.318 -37.2786 -4.06443)
(405.884 0.864625 -0.117456)
(405.161 1.14183 -0.227533)
(405.178 0.838418 -0.32457)
(405.887 0.267326 -0.418474)
(407.072 -0.383286 -0.512434)
(408.626 -1.0488 -0.605842)
(410.524 -1.71961 -0.698345)
(412.782 -2.40523 -0.790767)
(415.437 -3.12337 -0.885155)
(418.546 -3.89778 -0.984775)
(422.192 -4.75871 -1.09403)
(426.483 -5.74474 -1.21849)
(431.566 -6.90676 -1.36508)
(437.633 -8.31517 -1.54253)
(444.942 -10.0734 -1.76194)
(453.851 -12.3438 -2.03759)
(464.854 -15.4006 -2.38798)
(478.659 -19.7406 -2.83718)
(495.978 -26.3856 -3.41634)
(520.001 -37.0508 -4.14029)
(405.878 0.887645 -0.0907196)
(405.138 1.17148 -0.179191)
(405.144 0.860244 -0.254683)
(405.851 0.283335 -0.32194)
(407.041 -0.365483 -0.385575)
(408.606 -1.0242 -0.447218)
(410.524 -1.68572 -0.507961)
(412.81 -2.36026 -0.569838)
(415.503 -3.06567 -0.635804)
(418.661 -3.826 -0.709421)
(422.367 -4.67172 -0.79477)
(426.73 -5.64153 -0.896608)
(431.896 -6.78619 -1.02068)
(438.059 -8.17577 -1.17417)
(445.481 -9.91318 -1.36622)
(454.521 -12.16 -1.60858)
(465.68 -15.1895 -1.91649)
(479.673 -19.497 -2.30964)
(497.216 -26.1026 -2.81316)
(521.551 -36.7217 -3.44105)
(405.874 0.899859 -0.0642842)
(405.123 1.19012 -0.128393)
(405.118 0.876067 -0.183673)
(405.82 0.293979 -0.232542)
(407.012 -0.357263 -0.279796)
(408.582 -1.01586 -0.328233)
(410.509 -1.67648 -0.378912)
(412.808 -2.35014 -0.43274)
(415.518 -3.0547 -0.491168)
(418.699 -3.81388 -0.556216)
(422.434 -4.65789 -0.630433)
(426.833 -5.6251 -0.717006)
(432.043 -6.76588 -0.819999)
(438.26 -8.14992 -0.944647)
(445.748 -9.87963 -1.09772)
(454.869 -12.1161 -1.28794)
(466.127 -15.132 -1.52658)
(480.244 -19.4218 -1.8281)
(497.941 -26.005 -2.21076)
(522.498 -36.5993 -2.68702)
(405.872 0.906256 -0.0382908)
(405.115 1.20068 -0.0769391)
(405.102 0.885919 -0.110666)
(405.8 0.300996 -0.140267)
(406.991 -0.351769 -0.168592)
(408.563 -1.00975 -0.197628)
(410.492 -1.66833 -0.228061)
(412.795 -2.33912 -0.260292)
(415.511 -3.04009 -0.295129)
(418.701 -3.79491 -0.333871)
(422.449 -4.63374 -0.378225)
(426.864 -5.59497 -0.430309)
(432.097 -6.72896 -0.49277)
(438.343 -8.10536 -0.568951)
(445.868 -9.82652 -0.663106)
(455.036 -12.0534 -0.780657)
(466.355 -15.0584 -0.928507)
(480.548 -19.3359 -1.11547)
(498.34 -25.9049 -1.35244)
(523.033 -36.4857 -1.64832)
(405.871 0.90902 -0.0127198)
(405.111 1.20543 -0.0256332)
(405.095 0.890632 -0.0369896)
(405.79 0.304484 -0.0469491)
(406.98 -0.34914 -0.0564473)
(408.553 -1.00705 -0.0662339)
(410.483 -1.66493 -0.0766149)
(412.788 -2.33477 -0.0877634)
(415.508 -3.03466 -0.0999784)
(418.702 -3.78825 -0.113722)
(422.455 -4.62569 -0.129583)
(426.879 -5.58532 -0.148271)
(432.122 -6.71747 -0.170657)
(438.381 -8.0917 -0.197837)
(445.923 -9.81026 -0.231208)
(455.114 -12.034 -0.272554)
(466.461 -15.0352 -0.324157)
(480.69 -19.308 -0.388944)
(498.528 -25.8713 -0.47052)
(523.288 -36.4476 -0.57239)
(405.871 0.90902 0.012691)
(405.111 1.20543 0.0255733)
(405.095 0.890632 0.0368972)
(405.79 0.304484 0.0468219)
(406.98 -0.349139 0.0562819)
(408.553 -1.00705 0.0660262)
(410.483 -1.66493 0.0763596)
(412.788 -2.33477 0.0874541)
(415.508 -3.03466 0.0996071)
(418.702 -3.78825 0.113279)
(422.455 -4.62569 0.129057)
(426.879 -5.58532 0.147647)
(432.122 -6.71747 0.169918)
(438.381 -8.09169 0.196963)
(445.923 -9.81026 0.230173)
(455.114 -12.034 0.27133)
(466.461 -15.0352 0.322708)
(480.69 -19.308 0.387227)
(498.528 -25.8712 0.468483)
(523.288 -36.4476 0.56997)
(405.872 0.906257 0.0382626)
(405.115 1.20068 0.0768804)
(405.102 0.88592 0.110575)
(405.8 0.300997 0.140142)
(406.991 -0.351767 0.168429)
(408.563 -1.00975 0.197424)
(410.492 -1.66832 0.227811)
(412.795 -2.33912 0.259989)
(415.511 -3.04009 0.294765)
(418.701 -3.79491 0.333437)
(422.449 -4.63374 0.377709)
(426.864 -5.59496 0.429698)
(432.097 -6.72895 0.492046)
(438.343 -8.10535 0.568095)
(445.868 -9.8265 0.662094)
(455.036 -12.0534 0.779459)
(466.355 -15.0584 0.927088)
(480.548 -19.3359 1.11379)
(498.341 -25.9049 1.35045)
(523.034 -36.4857 1.64595)
(405.874 0.899859 0.0642572)
(405.123 1.19012 0.128336)
(405.118 0.876069 0.183586)
(405.82 0.293981 0.232422)
(407.012 -0.35726 0.27964)
(408.582 -1.01586 0.328038)
(410.509 -1.67647 0.378673)
(412.808 -2.35014 0.43245)
(415.518 -3.05469 0.49082)
(418.7 -3.81387 0.555801)
(422.434 -4.65788 0.629939)
(426.833 -5.62508 0.716421)
(432.043 -6.76587 0.819307)
(438.26 -8.1499 0.943828)
(445.748 -9.87961 1.09675)
(454.869 -12.1161 1.2868)
(466.128 -15.1319 1.52523)
(480.245 -19.4218 1.8265)
(497.942 -26.005 2.20885)
(522.499 -36.5992 2.68476)
(405.878 0.887646 0.0906945)
(405.138 1.17148 0.179139)
(405.144 0.860247 0.254602)
(405.851 0.283338 0.321829)
(407.041 -0.365479 0.38543)
(408.606 -1.0242 0.447036)
(410.524 -1.68572 0.507737)
(412.81 -2.36025 0.569566)
(415.503 -3.06566 0.635478)
(418.662 -3.82598 0.709032)
(422.367 -4.6717 0.794309)
(426.73 -5.64151 0.896061)
(431.896 -6.78616 1.02004)
(438.059 -8.17574 1.17341)
(445.481 -9.91314 1.36531)
(454.522 -12.16 1.60751)
(465.681 -15.1894 1.91523)
(479.674 -19.497 2.30814)
(497.218 -26.1025 2.81138)
(521.552 -36.7215 3.43894)
(405.884 0.864627 0.117433)
(405.161 1.14183 0.227485)
(405.178 0.838422 0.324496)
(405.887 0.267331 0.418372)
(407.072 -0.383279 0.512302)
(408.626 -1.04879 0.605676)
(410.525 -1.7196 0.698142)
(412.782 -2.40522 0.790521)
(415.437 -3.12335 0.884861)
(418.546 -3.89777 0.984424)
(422.192 -4.75869 1.09362)
(426.484 -5.74472 1.218)
(431.567 -6.90673 1.3645)
(437.633 -8.31514 1.54184)
(444.943 -10.0734 1.76113)
(453.852 -12.3438 2.03663)
(464.855 -15.4005 2.38684)
(478.66 -19.7405 2.83583)
(495.98 -26.3855 3.41474)
(520.003 -37.0507 4.1384)
(405.895 0.815248 0.141762)
(405.182 1.09837 0.261614)
(405.183 0.824081 0.354898)
(405.85 0.273764 0.423232)
(406.977 -0.362963 0.471588)
(408.458 -1.014 0.511182)
(410.272 -1.66858 0.552138)
(412.434 -2.33838 0.600675)
(414.982 -3.04314 0.660757)
(417.975 -3.80794 0.735842)
(421.494 -4.66399 0.829694)
(425.649 -5.65069 0.946886)
(430.584 -6.81962 1.09335)
(436.491 -8.24195 1.27702)
(443.626 -10.0219 1.50853)
(452.342 -12.3231 1.8022)
(463.127 -15.4209 2.17734)
(476.681 -19.8146 2.65989)
(493.707 -26.5283 3.2844)
(517.32 -37.2784 4.06277)
(405.906 0.699892 0.145722)
(405.16 1.01016 0.370728)
(405.079 0.776536 0.643414)
(405.625 0.231223 0.887704)
(406.586 -0.420605 1.07278)
(407.859 -1.09298 1.20458)
(409.434 -1.77158 1.2976)
(411.341 -2.46718 1.36541)
(413.627 -3.19854 1.41991)
(416.356 -3.99006 1.4714)
(419.613 -4.87293 1.52881)
(423.509 -5.88711 1.60033)
(428.189 -7.08518 1.69434)
(433.841 -8.53959 1.82032)
(440.72 -10.3563 1.9897)
(449.173 -12.7006 2.21708)
(459.684 -15.8509 2.52175)
(472.941 -20.3097 2.92986)
(489.646 -27.1057 3.47666)
(512.847 -37.9618 4.16814)
(405.502 0.702346 -0.373659)
(404.099 1.15627 -0.639238)
(403.372 1.05132 -0.815564)
(403.366 0.616627 -0.895822)
(403.831 0.0693503 -0.887284)
(404.643 -0.513163 -0.816141)
(405.785 -1.12484 -0.708956)
(407.287 -1.77765 -0.581692)
(409.193 -2.48809 -0.441479)
(411.567 -3.27788 -0.291079)
(414.496 -4.17559 -0.130937)
(418.087 -5.2189 0.0405664)
(422.483 -6.45891 0.227162)
(427.873 -7.96744 0.434872)
(434.508 -9.85067 0.672506)
(442.732 -12.2753 0.952507)
(453.024 -15.522 1.29226)
(466.065 -20.0984 1.71652)
(482.557 -27.0375 2.25767)
(505.473 -38.0754 2.90523)
(403.051 1.64722 1.93297)
(399.661 2.49323 3.09975)
(397.286 2.42433 3.36707)
(395.873 1.94015 3.23914)
(395.181 1.32254 3.00605)
(395.081 0.652658 2.75927)
(395.515 -0.0585509 2.5221)
(396.463 -0.815022 2.30538)
(397.935 -1.62774 2.11575)
(399.966 -2.51614 1.95596)
(402.625 -3.509 1.82752)
(406.007 -4.64504 1.73126)
(410.247 -5.97676 1.66822)
(415.525 -7.57783 1.64062)
(422.088 -9.55728 1.65261)
(430.277 -12.0862 1.71137)
(440.567 -15.4518 1.82848)
(453.635 -20.1713 2.023)
(470.196 -27.2842 2.31624)
(493.223 -38.5755 2.67558)
(349.328 3.26234 -15.1787)
(351.449 4.77617 -11.3681)
(353.281 4.91525 -8.87892)
(354.783 4.54454 -7.15615)
(356.209 4.00678 -5.86511)
(357.755 3.37518 -4.85614)
(359.515 2.66089 -4.05158)
(361.552 1.86786 -3.39896)
(363.935 0.992298 -2.86026)
(366.753 0.0191981 -2.40767)
(370.105 -1.0775 -2.02127)
(374.112 -2.33598 -1.68578)
(378.931 -3.80919 -1.38912)
(384.76 -5.57267 -1.12118)
(391.863 -7.73939 -0.872906)
(400.598 -10.4881 -0.635416)
(411.454 -14.1199 -0.399081)
(425.119 -19.1759 -0.151759)
(442.322 -26.7162 0.119717)
(466.101 -38.6732 0.366576)
(349.074 -0.941407 15.1428)
(351.362 -1.91612 11.1833)
(353.644 -2.86069 8.52109)
(355.854 -3.69947 6.67006)
(358.01 -4.42806 5.29718)
(360.197 -5.10509 4.23446)
(362.496 -5.79257 3.39393)
(364.979 -6.53875 2.71904)
(367.714 -7.38591 2.16917)
(370.783 -8.37844 1.71499)
(374.287 -9.56753 1.33394)
(378.332 -11.0167 1.00889)
(383.049 -12.8078 0.726288)
(388.599 -15.0514 0.475011)
(395.181 -17.9031 0.245455)
(403.045 -21.5924 0.0283653)
(412.491 -26.4704 -0.186392)
(423.873 -33.0868 -0.41119)
(437.435 -42.325 -0.659968)
(454.398 -55.4052 -0.900762)
(405.486 -0.806506 -0.981419)
(404.042 -1.53962 -1.74513)
(403.252 -2.20021 -1.96629)
(403.16 -2.7957 -1.88003)
(403.518 -3.34809 -1.71165)
(404.2 -3.90043 -1.54838)
(405.188 -4.49879 -1.40819)
(406.507 -5.1823 -1.29356)
(408.198 -5.98624 -1.20568)
(410.319 -6.94847 -1.14448)
(412.938 -8.1142 -1.10992)
(416.152 -9.53963 -1.10414)
(420.081 -11.2985 -1.12934)
(424.877 -13.4918 -1.18856)
(430.733 -16.264 -1.28662)
(437.89 -19.8294 -1.43139)
(446.652 -24.5153 -1.6351)
(457.38 -30.8392 -1.91647)
(470.332 -39.6399 -2.29656)
(486.744 -51.9904 -2.74575)
(433.886 -1.68261 1.2643)
(430.787 -2.66616 1.79693)
(428.365 -3.23553 1.89862)
(426.891 -3.66194 1.82682)
(426.133 -4.04492 1.66565)
(425.887 -4.43765 1.451)
(426.085 -4.88778 1.21103)
(426.722 -5.43695 0.964735)
(427.823 -6.12132 0.720903)
(429.427 -6.977 0.481368)
(431.591 -8.04554 0.244318)
(434.4 -9.37921 0.00603047)
(437.965 -11.0477 -0.239319)
(442.43 -13.1477 -0.49963)
(447.981 -15.8176 -0.785425)
(454.859 -19.263 -1.11051)
(463.365 -23.8011 -1.49278)
(473.868 -29.9353 -1.95616)
(486.627 -38.4848 -2.52909)
(502.887 -50.4502 -3.19843)
(436.379 -2.32711 -0.177191)
(435.394 -3.53117 -0.290949)
(434.551 -4.09253 -0.451252)
(434.128 -4.46423 -0.606421)
(434.089 -4.79752 -0.717761)
(434.362 -5.14663 -0.792847)
(434.941 -5.5538 -0.848954)
(435.864 -6.05851 -0.898475)
(437.182 -6.69634 -0.949905)
(438.955 -7.50258 -1.01022)
(441.257 -8.51771 -1.08549)
(444.18 -9.7928 -1.18157)
(447.842 -11.3958 -1.30519)
(452.39 -13.421 -1.46459)
(458.017 -16.0038 -1.67021)
(464.968 -19.3462 -1.93546)
(473.551 -23.7605 -2.27794)
(484.144 -29.7428 -2.72093)
(497.01 -38.1026 -3.29365)
(513.438 -49.8137 -3.99411)
(436.445 -2.24524 -0.228776)
(435.742 -3.51038 -0.293835)
(435.385 -4.13934 -0.311374)
(435.493 -4.55222 -0.336947)
(435.975 -4.91015 -0.367052)
(436.752 -5.27192 -0.400199)
(437.811 -5.67974 -0.441781)
(439.181 -6.17383 -0.496296)
(440.909 -6.79164 -0.566144)
(443.057 -7.57026 -0.653351)
(445.702 -8.55119 -0.760653)
(448.94 -9.78573 -0.891956)
(452.895 -11.3415 -1.05273)
(457.72 -13.3117 -1.25048)
(463.614 -15.8301 -1.49528)
(470.827 -19.0964 -1.80053)
(479.677 -23.4194 -2.18389)
(490.553 -29.2901 -2.66818)
(503.722 -37.5113 -3.28207)
(520.52 -49.0476 -4.02892)
(436.408 -2.14839 -0.154285)
(435.697 -3.4449 -0.249715)
(435.437 -4.13446 -0.311612)
(435.708 -4.58552 -0.380224)
(436.376 -4.96414 -0.45905)
(437.354 -5.3405 -0.540331)
(438.626 -5.76039 -0.621154)
(440.219 -6.26363 -0.702949)
(442.176 -6.88682 -0.788631)
(444.557 -7.6663 -0.881826)
(447.437 -8.64281 -0.986997)
(450.914 -9.86677 -1.10963)
(455.11 -11.4048 -1.25647)
(460.183 -13.3488 -1.4359)
(466.332 -15.8313 -1.65849)
(473.814 -19.05 -1.9376)
(482.952 -23.3111 -2.29023)
(494.147 -29.102 -2.73777)
(507.67 -37.2214 -3.30661)
(524.919 -48.6314 -4.00319)
(436.391 -2.10361 -0.106798)
(435.648 -3.4014 -0.194407)
(435.383 -4.11458 -0.254602)
(435.682 -4.58133 -0.307324)
(436.395 -4.9641 -0.362855)
(437.429 -5.33927 -0.420746)
(438.771 -5.75616 -0.479752)
(440.448 -6.25498 -0.541226)
(442.504 -6.87186 -0.608075)
(444.997 -7.64283 -0.68373)
(448.002 -8.60838 -0.772024)
(451.615 -9.8186 -0.877457)
(455.96 -11.3396 -1.00554)
(461.195 -13.2626 -1.16321)
(467.522 -15.7192 -1.35925)
(475.202 -18.9058 -1.60488)
(484.563 -23.127 -1.91439)
(496.013 -28.8678 -2.30575)
(509.829 -36.9237 -2.80098)
(527.456 -48.256 -3.40706)
(436.383 -2.08125 -0.0719258)
(435.619 -3.37214 -0.137226)
(435.339 -4.09405 -0.185111)
(435.638 -4.57067 -0.224712)
(436.363 -4.95773 -0.265767)
(437.415 -5.33306 -0.310979)
(438.781 -5.74862 -0.359719)
(440.488 -6.24559 -0.411976)
(442.582 -6.86009 -0.469052)
(445.122 -7.6279 -0.533021)
(448.182 -8.58928 -0.60645)
(451.861 -9.79402 -0.69252)
(456.282 -11.3078 -0.795276)
(461.605 -13.2215 -0.919915)
(468.035 -15.6658 -1.0731)
(475.834 -18.8366 -1.26334)
(485.337 -23.0373 -1.50144)
(496.956 -28.7518 -1.80095)
(510.973 -36.7739 -2.17842)
(528.869 -48.0658 -2.64074)
(436.379 -2.06957 -0.0417278)
(435.603 -3.35462 -0.0812357)
(435.311 -4.0797 -0.11159)
(435.607 -4.56215 -0.136217)
(436.335 -4.95233 -0.160902)
(437.393 -5.32754 -0.188155)
(438.765 -5.74121 -0.217865)
(440.482 -6.23546 -0.249822)
(442.589 -6.84655 -0.284682)
(445.147 -7.61019 -0.323757)
(448.23 -8.56655 -0.368741)
(451.938 -9.76538 -0.421696)
(456.395 -11.2723 -0.485198)
(461.763 -13.1779 -0.562515)
(468.247 -15.6129 -0.657805)
(476.113 -18.7727 -0.776344)
(485.696 -22.9605 -0.924799)
(497.414 -28.6595 -1.11152)
(511.552 -36.6631 -1.34661)
(529.611 -47.9346 -1.63507)
(436.377 -2.0645 -0.0137058)
(435.596 -3.34656 -0.0269104)
(435.299 -4.07256 -0.0373026)
(435.592 -4.55762 -0.0457069)
(436.321 -4.94942 -0.0539893)
(437.381 -5.32468 -0.0631468)
(438.756 -5.73746 -0.0732489)
(440.475 -6.23043 -0.0842385)
(442.587 -6.83999 -0.0963331)
(445.151 -7.60184 -0.109983)
(448.244 -8.55611 -0.125765)
(451.963 -9.75252 -0.14437)
(456.435 -11.2566 -0.16665)
(461.821 -13.159 -0.19369)
(468.328 -15.5903 -0.226871)
(476.223 -18.7457 -0.267956)
(485.843 -22.9283 -0.319179)
(497.606 -28.6212 -0.383354)
(511.8 -36.6176 -0.463867)
(529.936 -47.882 -0.562699)
(436.377 -2.0645 0.0136785)
(435.596 -3.34655 0.0268536)
(435.299 -4.07256 0.037215)
(435.592 -4.55761 0.0455863)
(436.321 -4.94942 0.0538325)
(437.381 -5.32468 0.0629499)
(438.756 -5.73746 0.0730069)
(440.475 -6.23042 0.0839449)
(442.587 -6.83999 0.0959804)
(445.151 -7.60184 0.109562)
(448.244 -8.55611 0.125264)
(451.963 -9.75251 0.143775)
(456.435 -11.2566 0.165945)
(461.821 -13.159 0.192853)
(468.328 -15.5903 0.225879)
(476.223 -18.7457 0.26678)
(485.843 -22.9283 0.317783)
(497.606 -28.6212 0.381695)
(511.8 -36.6176 0.461892)
(529.936 -47.882 0.560347)
(436.379 -2.06957 0.041701)
(435.603 -3.35462 0.08118)
(435.312 -4.0797 0.111504)
(435.607 -4.56215 0.136099)
(436.335 -4.95232 0.160749)
(437.393 -5.32754 0.187962)
(438.765 -5.7412 0.217628)
(440.482 -6.23545 0.249534)
(442.589 -6.84655 0.284336)
(445.147 -7.61018 0.323345)
(448.23 -8.56655 0.36825)
(451.938 -9.76537 0.421114)
(456.395 -11.2723 0.484507)
(461.763 -13.1779 0.561696)
(468.247 -15.6129 0.656834)
(476.113 -18.7727 0.775193)
(485.696 -22.9604 0.923433)
(497.415 -28.6595 1.1099)
(511.552 -36.6631 1.34467)
(529.612 -47.9346 1.63277)
(436.383 -2.08125 0.0719002)
(435.619 -3.37213 0.137173)
(435.339 -4.09405 0.185029)
(435.638 -4.57067 0.224599)
(436.363 -4.95773 0.26562)
(437.415 -5.33305 0.310794)
(438.781 -5.74861 0.359491)
(440.488 -6.24559 0.4117)
(442.582 -6.86008 0.468721)
(445.122 -7.62789 0.532625)
(448.182 -8.58927 0.605979)
(451.861 -9.794 0.691962)
(456.282 -11.3078 0.794615)