/*--------------------------------*- C++ -*----------------------------------*\
  =========                 |
  \\      /  F ield         | OpenFOAM: The Open Source CFD Toolbox
   \\    /   O peration     | Website:  https://openfoam.org
    \\  /    A nd           | Version:  10
     \\/     M anipulation  |
\*---------------------------------------------------------------------------*/
FoamFile
{
    format      ascii;
    class       volScalarField;
    location    "150";
    object      alphat;
}
// * * * * * * * * * * * * * * * * * * * * * * * * * * * * * * * * * * * * * //

dimensions      [1 -1 -1 0 0 0 0];

internalField   nonuniform List<scalar> 
112000
(
0.00276455
0.00278771
0.00281326
0.00284194
0.00287169
0.00290128
0.00293038
0.00295891
0.00298682
0.00301403
0.00304042
0.00306591
0.00309032
0.00311345
0.00313494
0.00315421
0.00317033
0.0031816
0.00318551
0.00317386
0.00277433
0.00283628
0.00289523
0.00295244
0.00300755
0.00306019
0.00311031
0.00315801
0.00320333
0.00324628
0.00328685
0.00332496
0.00336052
0.00339334
0.00342307
0.0034492
0.00347087
0.0034866
0.00349484
0.00348944
0.00278055
0.00285229
0.00292272
0.00299109
0.00305693
0.00311983
0.0031796
0.00323617
0.00328954
0.00333971
0.00338664
0.0034303
0.00347059
0.0035073
0.00354009
0.0035684
0.00359131
0.00360723
0.00361454
0.003607
0.00278142
0.00285474
0.0029287
0.00300225
0.0030743
0.00314398
0.00321075
0.00327424
0.00333422
0.00339055
0.00344311
0.00349176
0.00353637
0.00357669
0.00361235
0.0036427
0.00366673
0.00368265
0.00368851
0.00367728
0.00278124
0.00285484
0.00292979
0.00300504
0.00307925
0.00315147
0.00322106
0.00328761
0.00335082
0.00341045
0.00346632
0.00351825
0.00356604
0.00360938
0.00364785
0.00368074
0.00370693
0.00372445
0.00373105
0.00371904
0.00278095
0.00285451
0.00292956
0.00300511
0.00307985
0.00315288
0.00322358
0.00329153
0.00335642
0.00341795
0.00347589
0.00353
0.00358003
0.00362563
0.00366631
0.0037013
0.00372942
0.0037486
0.00375641
0.00374472
0.0027807
0.00285422
0.00292924
0.00300482
0.00307967
0.00315286
0.00322382
0.00329214
0.00335749
0.0034196
0.00347823
0.00353314
0.00358408
0.00363068
0.00367243
0.00370858
0.0037379
0.00375828
0.00376725
0.00375647
0.0027805
0.002854
0.002929
0.00300456
0.0030794
0.0031526
0.00322359
0.00329197
0.00335743
0.00341971
0.00347856
0.00353377
0.00358505
0.00363206
0.00367428
0.00371094
0.00374081
0.00376178
0.00377135
0.0037611
0.00278037
0.00285385
0.00292884
0.00300439
0.00307921
0.0031524
0.00322337
0.00329175
0.00335721
0.0034195
0.00347838
0.00353363
0.00358498
0.00363208
0.00367442
0.00371123
0.00374127
0.00376244
0.00377226
0.00376226
0.00278031
0.00285378
0.00292876
0.0030043
0.00307912
0.00315229
0.00322326
0.00329162
0.00335707
0.00341935
0.00347822
0.00353347
0.00358483
0.00363194
0.0036743
0.00371113
0.00374121
0.00376243
0.00377232
0.00376237
0.00278031
0.00285378
0.00292876
0.0030043
0.00307912
0.00315229
0.00322326
0.00329162
0.00335707
0.00341935
0.00347822
0.00353347
0.00358483
0.00363194
0.0036743
0.00371113
0.00374121
0.00376243
0.00377232
0.00376237
0.00278037
0.00285385
0.00292884
0.00300439
0.00307921
0.0031524
0.00322337
0.00329175
0.00335721
0.0034195
0.00347838
0.00353363
0.00358498
0.00363208
0.00367442
0.00371123
0.00374127
0.00376244
0.00377226
0.00376226
0.0027805
0.002854
0.002929
0.00300456
0.0030794
0.0031526
0.00322359
0.00329197
0.00335743
0.00341971
0.00347856
0.00353377
0.00358505
0.00363206
0.00367428
0.00371094
0.00374081
0.00376178
0.00377135
0.0037611
0.0027807
0.00285422
0.00292924
0.00300482
0.00307967
0.00315286
0.00322382
0.00329214
0.00335749
0.0034196
0.00347823
0.00353314
0.00358408
0.00363068
0.00367243
0.00370858
0.0037379
0.00375828
0.00376725
0.00375647
0.00278095
0.00285451
0.00292956
0.00300511
0.00307985
0.00315288
0.00322358
0.00329153
0.00335642
0.00341795
0.00347589
0.00353
0.00358003
0.00362563
0.00366631
0.0037013
0.00372942
0.0037486
0.00375641
0.00374472
0.00278124
0.00285484
0.00292979
0.00300504
0.00307925
0.00315147
0.00322106
0.00328761
0.00335082
0.00341045
0.00346632
0.00351825
0.00356604
0.00360938
0.00364785
0.00368074
0.00370693
0.00372445
0.00373105
0.00371904
0.00278142
0.00285474
0.0029287
0.00300225
0.0030743
0.00314398
0.00321075
0.00327424
0.00333422
0.00339055
0.00344311
0.00349176
0.00353637
0.0035767
0.00361235
0.0036427
0.00366673
0.00368265
0.00368851
0.00367728
0.00278055
0.00285229
0.00292272
0.00299109
0.00305693
0.00311983
0.0031796
0.00323617
0.00328954
0.00333971
0.00338664
0.0034303
0.00347059
0.0035073
0.00354009
0.0035684
0.00359131
0.00360723
0.00361454
0.003607
0.00277433
0.00283628
0.00289523
0.00295244
0.00300755
0.00306019
0.00311031
0.00315801
0.00320333
0.00324629
0.00328685
0.00332496
0.00336052
0.00339334
0.00342307
0.00344921
0.00347087
0.0034866
0.00349484
0.00348944
0.00276455
0.00278771
0.00281326
0.00284194
0.00287169
0.00290128
0.00293037
0.00295891
0.00298682
0.00301402
0.00304042
0.00306591
0.00309032
0.00311345
0.00313493
0.00315421
0.00317033
0.0031816
0.00318551
0.00317386
0.00277448
0.00283554
0.00289315
0.00294861
0.00300162
0.00305182
0.0030992
0.00314384
0.0031859
0.0032255
0.0032626
0.00329717
0.00332912
0.0033583
0.00338443
0.00340704
0.00342537
0.00343805
0.00344309
0.0034368
0.0261743
0.0235814
0.0218171
0.0204898
0.0194368
0.0185686
0.0178314
0.0171914
0.016624
0.016111
0.0156426
0.0152121
0.0148145
0.0144468
0.0141076
0.0137981
0.0135231
0.0132934
0.0131428
0.0131002
0.0289437
0.0276393
0.0265176
0.0255063
0.0245926
0.0237648
0.0230105
0.022319
0.0216819
0.0210921
0.0205445
0.0200353
0.0195623
0.0191251
0.0187258
0.01837
0.0180698
0.0178482
0.0177671
0.0178799
0.0291504
0.0281267
0.0272715
0.0264879
0.025756
0.0250667
0.024414
0.0237934
0.0232023
0.0226389
0.0221022
0.0215916
0.0211074
0.0206514
0.0202272
0.0198421
0.0195101
0.0192572
0.0191544
0.0192657
0.0291744
0.0282057
0.0274327
0.026747
0.0261153
0.0255202
0.0249506
0.0244003
0.0238656
0.023345
0.022838
0.0223448
0.0218664
0.0214052
0.0209647
0.0205517
0.0201789
0.0198692
0.01969
0.0196986
0.0291758
0.0282141
0.0274578
0.0267998
0.0262047
0.0256518
0.0251276
0.0246233
0.0241333
0.0236542
0.0231842
0.0227224
0.0222692
0.0218258
0.0213951
0.0209826
0.0205988
0.020263
0.0200369
0.0199669
0.0291746
0.0282131
0.0274589
0.0268073
0.0262231
0.0256855
0.0251803
0.0246979
0.0242319
0.0237779
0.0233332
0.0228963
0.0224665
0.0220445
0.0216322
0.0212341
0.0208591
0.020524
0.020287
0.0201858
0.0291733
0.0282114
0.0274567
0.0268056
0.0262235
0.0256897
0.0251901
0.024715
0.0242581
0.0238148
0.0233821
0.0229583
0.0225424
0.0221346
0.0217364
0.0213518
0.0209891
0.0206638
0.0204324
0.020328
0.0291724
0.0282103
0.0274551
0.0268035
0.0262215
0.0256884
0.0251902
0.0247173
0.0242632
0.0238237
0.0233958
0.0229774
0.0225678
0.022167
0.0217764
0.0213998
0.0210454
0.0207282
0.0205044
0.0204047
0.0291719
0.0282097
0.0274542
0.0268025
0.0262203
0.0256873
0.0251892
0.0247167
0.0242634
0.0238249
0.0233982
0.0229816
0.0225741
0.0221757
0.0217881
0.0214148
0.021064
0.0207508
0.0205312
0.0204353
0.0291719
0.0282097
0.0274542
0.0268025
0.0262203
0.0256873
0.0251892
0.0247167
0.0242634
0.0238249
0.0233982
0.0229816
0.0225741
0.0221757
0.0217881
0.0214148
0.021064
0.0207508
0.0205312
0.0204353
0.0291724
0.0282103
0.027455
0.0268035
0.0262215
0.0256884
0.0251902
0.0247173
0.0242632
0.0238237
0.0233958
0.0229774
0.0225678
0.022167
0.0217764
0.0213998
0.0210454
0.0207282
0.0205044
0.0204047
0.0291733
0.0282114
0.0274567
0.0268056
0.0262235
0.0256897
0.0251901
0.024715
0.0242581
0.0238148
0.0233821
0.0229583
0.0225424
0.0221346
0.0217364
0.0213518
0.0209891
0.0206638
0.0204324
0.020328
0.0291746
0.0282131
0.0274589
0.0268073
0.0262231
0.0256855
0.0251803
0.0246979
0.0242319
0.0237779
0.0233332
0.0228963
0.0224665
0.0220445
0.0216322
0.0212341
0.0208591
0.020524
0.020287
0.0201858
0.0291758
0.0282141
0.0274578
0.0267998
0.0262047
0.0256518
0.0251276
0.0246233
0.0241333
0.0236542
0.0231842
0.0227224
0.0222692
0.0218258
0.0213951
0.0209826
0.0205988
0.020263
0.0200369
0.0199669
0.0291744
0.0282057
0.0274327
0.026747
0.0261153
0.0255202
0.0249506
0.0244003
0.0238656
0.023345
0.022838
0.0223448
0.0218664
0.0214052
0.0209647
0.0205517
0.0201789
0.0198692
0.01969
0.0196986
0.0291504
0.0281267
0.0272715
0.0264879
0.025756
0.0250667
0.024414
0.0237934
0.0232023
0.022639
0.0221022
0.0215916
0.0211074
0.0206514
0.0202272
0.0198422
0.0195101
0.0192572
0.0191544
0.0192658
0.0289437
0.0276393
0.0265176
0.0255063
0.0245926
0.0237648
0.0230105
0.022319
0.0216819
0.0210921
0.0205445
0.0200353
0.0195623
0.0191251
0.0187258
0.01837
0.0180698
0.0178482
0.0177671
0.0178799
0.0261743
0.0235814
0.0218171
0.0204898
0.0194368
0.0185686
0.0178314
0.0171915
0.0166241
0.016111
0.0156427
0.0152122
0.0148146
0.0144468
0.0141077
0.0137982
0.0135231
0.0132934
0.0131429
0.0131003
0.00277448
0.00283554
0.00289314
0.00294861
0.00300162
0.00305182
0.00309919
0.00314384
0.0031859
0.0032255
0.0032626
0.00329717
0.00332912
0.0033583
0.00338442
0.00340704
0.00342537
0.00343805
0.00344309
0.00343679
0.00278197
0.00285328
0.00292286
0.00298998
0.00305418
0.0031151
0.00317257
0.00322655
0.00327709
0.00332429
0.00336834
0.00340921
0.00344682
0.00348103
0.00351165
0.00353835
0.00356059
0.00357752
0.00358799
0.00359034
0.0289804
0.027693
0.0265821
0.0255775
0.0246673
0.0238402
0.0230842
0.0223888
0.0217453
0.0211439
0.0205719
0.020028
0.0195114
0.0190218
0.0185603
0.018129
0.0177338
0.0173857
0.0171081
0.0169127
0.0334189
0.0335867
0.0336041
0.0334457
0.0331478
0.0327527
0.0322921
0.0317889
0.0312601
0.0307161
0.0301649
0.0296155
0.0290753
0.0285521
0.0280545
0.0275943
0.02719
0.0268702
0.0266872
0.0266662
0.0338631
0.0344814
0.034902
0.0351105
0.0351389
0.035028
0.0348117
0.0345164
0.0341632
0.033769
0.0333475
0.0329106
0.0324689
0.0320336
0.0316178
0.0312395
0.0309255
0.030718
0.0306925
0.0308938
0.0339424
0.034711
0.03529
0.035648
0.0358083
0.0358072
0.0356788
0.0354513
0.0351483
0.0347895
0.0343908
0.0339659
0.0335269
0.033086
0.0326571
0.0322589
0.0319197
0.0316841
0.0316369
0.0318373
0.0339532
0.0347572
0.0353929
0.0358229
0.036062
0.0361392
0.0360828
0.0359178
0.035666
0.0353457
0.0349726
0.0345602
0.0341204
0.0336649
0.0332066
0.0327626
0.0323582
0.0320339
0.0318715
0.0319305
0.0339524
0.0347611
0.0354101
0.0358639
0.0361362
0.0362537
0.0362418
0.0361228
0.0359161
0.0356379
0.0353022
0.0349209
0.0345046
0.0340634
0.0336085
0.0331545
0.0327233
0.0323497
0.0321087
0.0320523
0.0339506
0.034759
0.0354094
0.0358682
0.03615
0.0362814
0.0362877
0.0361906
0.0360083
0.0357565
0.0354479
0.0350934
0.0347025
0.034284
0.0338477
0.0334064
0.0329794
0.0325977
0.032331
0.032224
0.0339493
0.0347571
0.0354069
0.035866
0.0361496
0.0362847
0.0362968
0.0362075
0.0360352
0.0357953
0.0355003
0.0351607
0.0347855
0.034383
0.0339624
0.0335355
0.0331203
0.0327458
0.0324789
0.0323595
0.0339487
0.0347562
0.0354055
0.0358643
0.036148
0.0362838
0.0362973
0.0362101
0.0360409
0.0358048
0.0355147
0.0351809
0.0348122
0.0344169
0.034004
0.0335848
0.033177
0.0328088
0.032546
0.0324265
0.0339487
0.0347562
0.0354055
0.0358643
0.036148
0.0362838
0.0362973
0.0362101
0.0360409
0.0358048
0.0355147
0.0351809
0.0348122
0.0344169
0.034004
0.0335848
0.033177
0.0328088
0.032546
0.0324265
0.0339493
0.0347571
0.0354069
0.035866
0.0361496
0.0362847
0.0362968
0.0362075
0.0360352
0.0357953
0.0355003
0.0351607
0.0347855
0.034383
0.0339624
0.0335355
0.0331203
0.0327458
0.0324789
0.0323595
0.0339506
0.034759
0.0354094
0.0358682
0.03615
0.0362814
0.0362877
0.0361906
0.0360083
0.0357565
0.0354479
0.0350934
0.0347025
0.034284
0.0338477
0.0334064
0.0329794
0.0325977
0.032331
0.032224
0.0339524
0.0347611
0.0354101
0.0358639
0.0361362
0.0362537
0.0362418
0.0361228
0.0359161
0.0356379
0.0353022
0.0349209
0.0345046
0.0340634
0.0336085
0.0331545
0.0327233
0.0323497
0.0321087
0.0320523
0.0339532
0.0347572
0.0353929
0.0358229
0.036062
0.0361392
0.0360828
0.0359178
0.035666
0.0353457
0.0349726
0.0345602
0.0341204
0.0336649
0.0332066
0.0327626
0.0323582
0.0320339
0.0318714
0.0319305
0.0339424
0.034711
0.03529
0.035648
0.0358083
0.0358072
0.0356788
0.0354513
0.0351483
0.0347895
0.0343908
0.0339659
0.0335269
0.033086
0.0326571
0.0322589
0.0319197
0.0316841
0.0316369
0.0318373
0.0338631
0.0344814
0.034902
0.0351105
0.0351389
0.035028
0.0348117
0.0345164
0.0341632
0.033769
0.0333475
0.0329106
0.0324689
0.0320336
0.0316178
0.0312395
0.0309256
0.0307181
0.0306925
0.0308939
0.0334189
0.0335867
0.0336041
0.0334457
0.0331478
0.0327527
0.0322921
0.0317889
0.0312601
0.0307161
0.0301649
0.0296154
0.0290753
0.0285521
0.0280545
0.0275943
0.02719
0.0268702
0.0266872
0.0266663
0.0289804
0.0276929
0.026582
0.0255775
0.0246673
0.0238402
0.0230842
0.0223889
0.0217454
0.021144
0.020572
0.0200281
0.0195115
0.0190219
0.0185604
0.0181291
0.0177339
0.0173858
0.0171082
0.0169128
0.00278197
0.00285328
0.00292286
0.00298998
0.00305418
0.0031151
0.00317256
0.00322655
0.00327709
0.00332428
0.00336834
0.00340921
0.00344681
0.00348103
0.00351165
0.00353835
0.00356059
0.00357752
0.00358799
0.00359034
0.00278421
0.00285723
0.00293049
0.00300297
0.00307356
0.00314144
0.00320608
0.00326719
0.00332457
0.00337813
0.00342782
0.00347363
0.00351553
0.00355347
0.00358744
0.00361753
0.00364344
0.00366473
0.00368091
0.00369147
0.0292045
0.0282017
0.0273616
0.026589
0.0258653
0.025183
0.0245364
0.0239216
0.0233358
0.0227772
0.0222438
0.0217348
0.0212498
0.0207907
0.0203568
0.0199393
0.0195465
0.0191905
0.0188891
0.0186527
0.0339134
0.0345497
0.0349839
0.0352027
0.0352391
0.0351343
0.0349224
0.0346294
0.0342759
0.0338785
0.0334504
0.0330035
0.032548
0.0320905
0.0316374
0.0312028
0.0308064
0.0304763
0.0302521
0.0301573
0.0351019
0.0354196
0.0358463
0.0362859
0.036681
0.0370073
0.0372544
0.0374184
0.0375002
0.0375048
0.0374397
0.0373132
0.0371364
0.0369225
0.0366879
0.0364542
0.0362518
0.0361235
0.0361306
0.0363142
0.0353266
0.0357945
0.036274
0.0367304
0.0371394
0.0374913
0.0377814
0.0380064
0.0381648
0.0382569
0.0382859
0.0382571
0.0381782
0.0380603
0.0379186
0.0377754
0.0376636
0.0376319
0.0377545
0.0380879
0.0353743
0.03594
0.0365106
0.0370411
0.0375069
0.0378986
0.038213
0.0384494
0.0386083
0.0386923
0.0387055
0.0386538
0.0385452
0.0383898
0.0382021
0.0380028
0.0378236
0.0377126
0.0377479
0.037996
0.0353793
0.0359698
0.0365781
0.0371556
0.0376735
0.0381178
0.0384814
0.0387605
0.0389537
0.0390622
0.0390891
0.0390396
0.0389204
0.0387408
0.0385132
0.0382559
0.037997
0.0377797
0.0376787
0.0377609
0.0353776
0.0359718
0.0365892
0.0371824
0.0377222
0.0381942
0.0385894
0.0389022
0.0391294
0.0392703
0.0393264
0.0393013
0.0392
0.0390297
0.038801
0.0385293
0.0382388
0.0379676
0.0377844
0.0377514
0.0353759
0.0359701
0.0365887
0.0371852
0.0377313
0.0382128
0.0386211
0.03895
0.0391958
0.0393571
0.0394346
0.0394308
0.0393495
0.039197
0.0389818
0.0387177
0.0384262
0.0381417
0.0379286
0.0378438
0.035375
0.0359691
0.0365875
0.0371844
0.0377316
0.0382156
0.0386277
0.0389619
0.0392146
0.0393841
0.0394711
0.0394775
0.039407
0.039265
0.0390597
0.0388037
0.0385174
0.0382334
0.0380139
0.0379132
0.035375
0.0359691
0.0365875
0.0371844
0.0377316
0.0382156
0.0386277
0.0389619
0.0392146
0.0393841
0.0394711
0.0394775
0.039407
0.039265
0.0390597
0.0388037
0.0385174
0.0382334
0.0380139
0.0379132
0.0353759
0.0359701
0.0365887
0.0371852
0.0377313
0.0382128
0.0386211
0.03895
0.0391958
0.0393571
0.0394346
0.0394308
0.0393495
0.039197
0.0389818
0.0387177
0.0384262
0.0381417
0.0379286
0.0378438
0.0353776
0.0359718
0.0365892
0.0371824
0.0377222
0.0381942
0.0385894
0.0389022
0.0391294
0.0392703
0.0393264
0.0393013
0.0392
0.0390297
0.038801
0.0385293
0.0382388
0.0379676
0.0377844
0.0377514
0.0353793
0.0359698
0.0365781
0.0371556
0.0376735
0.0381178
0.0384814
0.0387605
0.0389537
0.0390622
0.0390891
0.0390396
0.0389204
0.0387408
0.0385132
0.0382559
0.037997
0.0377797
0.0376787
0.0377609
0.0353743
0.03594
0.0365106
0.0370411
0.0375069
0.0378986
0.038213
0.0384494
0.0386083
0.0386923
0.0387055
0.0386538
0.0385452
0.0383898
0.0382021
0.0380028
0.0378236
0.0377126
0.0377479
0.037996
0.0353266
0.0357945
0.036274
0.0367304
0.0371394
0.0374913
0.0377814
0.0380064
0.0381648
0.0382569
0.0382859
0.0382571
0.0381782
0.0380603
0.0379186
0.0377754
0.0376636
0.037632
0.0377545
0.0380879
0.0351019
0.0354196
0.0358463
0.0362859
0.036681
0.0370073
0.0372544
0.0374184
0.0375002
0.0375048
0.0374397
0.0373132
0.0371364
0.0369225
0.0366879
0.0364542
0.0362519
0.0361236
0.0361306
0.0363142
0.0339134
0.0345497
0.0349839
0.0352026
0.035239
0.0351343
0.0349223
0.0346293
0.0342759
0.0338785
0.0334504
0.0330034
0.0325479
0.0320904
0.0316374
0.0312028
0.0308064
0.0304763
0.0302521
0.0301574
0.0292045
0.0282017
0.0273616
0.026589
0.0258653
0.0251831
0.0245365
0.0239217
0.0233359
0.0227773
0.022244
0.0217349
0.02125
0.0207908
0.0203569
0.0199394
0.0195466
0.0191906
0.0188892
0.0186528
0.00278421
0.00285723
0.00293049
0.00300296
0.00307355
0.00314143
0.00320608
0.00326718
0.00332456
0.00337812
0.00342782
0.00347363
0.00351552
0.00355346
0.00358743
0.00361753
0.00364344
0.00366473
0.00368091
0.00369147
0.00278572
0.00285912
0.00293354
0.00300792
0.00308093
0.00315162
0.00321939
0.00328386
0.0033448
0.00340205
0.0034555
0.00350511
0.00355084
0.00359267
0.00363064
0.00366487
0.00369523
0.00372161
0.00374395
0.00376234
0.0292464
0.0282999
0.0275447
0.0268732
0.026254
0.0256708
0.0251137
0.024577
0.024058
0.0235554
0.0230688
0.022599
0.0221472
0.0217154
0.0213041
0.0209109
0.0205439
0.0202128
0.0199303
0.0197032
0.034022
0.0348206
0.0354281
0.0358141
0.0360025
0.0360302
0.0359313
0.0357343
0.0354627
0.0351359
0.03477
0.0343785
0.0339735
0.0335674
0.0331681
0.0327861
0.0324403
0.0321555
0.0319612
0.0318749
0.0353847
0.0358785
0.0363853
0.0368711
0.0373118
0.0376974
0.0380233
0.0382859
0.0384833
0.0386157
0.0386862
0.0387004
0.0386664
0.0385931
0.0384946
0.0383909
0.0383099
0.0382895
0.0383768
0.0386045
0.0362872
0.0363891
0.0366014
0.0368873
0.0372089
0.0375436
0.0378772
0.0381983
0.0384963
0.0387626
0.0389912
0.0391789
0.0393263
0.0394384
0.0395257
0.0396066
0.0397102
0.0398793
0.0401709
0.0406299
0.0364654
0.036698
0.0369498
0.0372205
0.0374977
0.037773
0.0380409
0.0382959
0.0385317
0.0387418
0.0389211
0.0390664
0.0391772
0.0392569
0.0393141
0.0393657
0.0394395
0.0395788
0.0398458
0.040295
0.0364979
0.0368068
0.0371296
0.0374574
0.0377772
0.0380801
0.0383606
0.0386138
0.0388342
0.039017
0.0391576
0.0392536
0.0393045
0.039313
0.0392869
0.0392409
0.0392009
0.0392078
0.0393238
0.039609
0.0364999
0.0368279
0.0371792
0.0375414
0.037899
0.0382404
0.0385573
0.0388421
0.0390878
0.0392877
0.0394365
0.0395303
0.0395675
0.0395494
0.0394817
0.0393768
0.0392571
0.0391593
0.0391424
0.0392662
0.0364979
0.036829
0.0371875
0.0375612
0.0379344
0.0382955
0.0386351
0.0389444
0.0392148
0.0394384
0.0396083
0.0397193
0.0397681
0.0397545
0.0396821
0.0395609
0.0394104
0.0392634
0.0391749
0.0392021
0.0364967
0.0368281
0.0371878
0.0375641
0.0379417
0.0383091
0.0386572
0.0389768
0.0392591
0.0394954
0.0396782
0.0398016
0.0398614
0.0398563
0.039789
0.0396681
0.0395111
0.039349
0.0392342
0.0392218
0.0364967
0.0368281
0.0371878
0.0375641
0.0379417
0.0383091
0.0386572
0.0389768
0.0392591
0.0394954
0.0396782
0.0398016
0.0398614
0.0398563
0.039789
0.0396681
0.0395111
0.039349
0.0392342
0.0392218
0.0364979
0.036829
0.0371875
0.0375612
0.0379344
0.0382955
0.0386351
0.0389444
0.0392148
0.0394384
0.0396083
0.0397193
0.0397681
0.0397545
0.0396821
0.0395609
0.0394104
0.0392634
0.0391749
0.0392021
0.0364999
0.0368279
0.0371792
0.0375414
0.037899
0.0382404
0.0385573
0.0388421
0.0390878
0.0392877
0.0394365
0.0395303
0.0395675
0.0395494
0.0394817
0.0393768
0.0392571
0.0391593
0.0391424
0.0392662
0.0364979
0.0368068
0.0371296
0.0374574
0.0377772
0.0380801
0.0383606
0.0386138
0.0388342
0.039017
0.0391576
0.0392536
0.0393045
0.039313
0.0392869
0.0392409
0.0392009
0.0392078
0.0393238
0.039609
0.0364654
0.036698
0.0369498
0.0372205
0.0374977
0.037773
0.0380409
0.038296
0.0385317
0.0387418
0.0389211
0.0390664
0.0391772
0.0392569
0.0393141
0.0393657
0.0394395
0.0395788
0.0398458
0.040295
0.0362872
0.0363891
0.0366014
0.0368873
0.0372089
0.0375436
0.0378772
0.0381983
0.0384963
0.0387626
0.0389912
0.0391789
0.0393263
0.0394384
0.0395257
0.0396066
0.0397103
0.0398793
0.0401709
0.0406299
0.0353847
0.0358785
0.0363853
0.0368711
0.0373118
0.0376974
0.0380233
0.0382859
0.0384833
0.0386157
0.0386862
0.0387004
0.0386664
0.0385931
0.0384946
0.0383909
0.0383099
0.0382895
0.0383768
0.0386045
0.034022
0.0348206
0.0354281
0.0358141
0.0360024
0.0360301
0.0359313
0.0357343
0.0354627
0.0351359
0.0347699
0.0343784
0.0339734
0.0335674
0.0331681
0.0327861
0.0324403
0.0321555
0.0319612
0.0318749
0.0292464
0.0282999
0.0275447
0.0268732
0.026254
0.0256708
0.0251137
0.0245771
0.0240581
0.0235555
0.0230689
0.0225991
0.0221473
0.0217155
0.0213042
0.020911
0.020544
0.0202129
0.0199304
0.0197033
0.00278572
0.00285912
0.00293354
0.00300792
0.00308093
0.00315161
0.00321938
0.00328386
0.0033448
0.00340204
0.0034555
0.00350511
0.00355084
0.00359267
0.00363064
0.00366486
0.00369523
0.00372161
0.00374395
0.00376234
0.00278738
0.00286084
0.00293552
0.00301043
0.00308427
0.00315612
0.00322542
0.00329177
0.00335491
0.00341464
0.00347081
0.00352334
0.00357217
0.00361728
0.00365865
0.00369628
0.00373038
0.00376123
0.00378903
0.00381412
0.0292678
0.0283278
0.0275896
0.0269468
0.0263655
0.0258266
0.0253177
0.024831
0.0243619
0.023908
0.0234681
0.0230424
0.022632
0.0222392
0.0218674
0.0215213
0.0212036
0.0209151
0.0206668
0.0204652
0.0340578
0.034895
0.0355645
0.0360298
0.0363067
0.0364251
0.0364143
0.0363001
0.0361048
0.0358478
0.0355458
0.0352132
0.0348633
0.0345089
0.0341634
0.033843
0.0335563
0.0333238
0.0331693
0.0331076
0.0354659
0.0360685
0.0366811
0.0372599
0.0377808
0.0382355
0.0386216
0.0389387
0.0391882
0.0393733
0.0394989
0.0395722
0.0396025
0.0396015
0.0395845
0.0395676
0.0395757
0.0396412
0.039801
0.0400815
0.0365248
0.0367802
0.0370566
0.0373557
0.0376666
0.0379819
0.0382976
0.038609
0.0389106
0.0391968
0.0394634
0.039708
0.0399311
0.040137
0.0403345
0.0405397
0.0407774
0.0410832
0.041501
0.0420658
0.0373225
0.0373225
0.0373957
0.0375261
0.0376905
0.0378746
0.0380712
0.0382757
0.0384834
0.03869
0.0388913
0.0390848
0.03927
0.0394496
0.0396313
0.0398295
0.0400683
0.0403843
0.0408254
0.041434
0.0374697
0.03759
0.0377135
0.0378492
0.0379918
0.0381363
0.0382802
0.038422
0.0385592
0.0386885
0.0388068
0.038912
0.0390035
0.0390838
0.0391595
0.0392443
0.0393611
0.0395458
0.0398481
0.0403164
0.0374934
0.037676
0.0378587
0.0380428
0.0382227
0.0383932
0.0385516
0.038696
0.038824
0.0389327
0.039019
0.0390805
0.0391163
0.0391278
0.0391205
0.0391062
0.0391059
0.0391531
0.0392966
0.0395876
0.0374943
0.0376925
0.037898
0.0381091
0.0383183
0.0385187
0.0387054
0.0388744
0.0390219
0.0391436
0.0392354
0.0392938
0.0393166
0.039304
0.03926
0.0391945
0.0391262
0.0390862
0.0391212
0.0392827
0.0374929
0.0376938
0.0379052
0.0381249
0.0383454
0.0385593
0.0387611
0.0389459
0.0391086
0.0392439
0.0393467
0.0394126
0.0394384
0.0394232
0.03937
0.0392874
0.0391927
0.0391153
0.0391004
0.0391992
0.0374929
0.0376938
0.0379052
0.0381249
0.0383454
0.0385593
0.0387611
0.0389459
0.0391086
0.0392439
0.0393467
0.0394126
0.0394384
0.0394232
0.03937
0.0392874
0.0391927
0.0391153
0.0391004
0.0391992
0.0374943
0.0376925
0.037898
0.0381091
0.0383183
0.0385187
0.0387054
0.0388744
0.0390219
0.0391436
0.0392354
0.0392938
0.0393166
0.039304
0.03926
0.0391945
0.0391262
0.0390862
0.0391212
0.0392827
0.0374934
0.037676
0.0378587
0.0380428
0.0382227
0.0383932
0.0385516
0.038696
0.038824
0.0389327
0.039019
0.0390805
0.0391163
0.0391278
0.0391205
0.0391062
0.0391059
0.0391531
0.0392966
0.0395876
0.0374697
0.03759
0.0377135
0.0378492
0.0379918
0.0381363
0.0382802
0.0384221
0.0385592
0.0386885
0.0388068
0.038912
0.0390035
0.0390838
0.0391595
0.0392443
0.0393611
0.0395458
0.0398481
0.0403164
0.0373225
0.0373225
0.0373957
0.0375261
0.0376905
0.0378746
0.0380712
0.0382757
0.0384834
0.03869
0.0388913
0.0390848
0.03927
0.0394496
0.0396313
0.0398295
0.0400683
0.0403843
0.0408254
0.041434
0.0365248
0.0367802
0.0370566
0.0373557
0.0376666
0.0379819
0.0382975
0.038609
0.0389106
0.0391968
0.0394634
0.039708
0.0399311
0.0401369
0.0403345
0.0405397
0.0407774
0.0410832
0.041501
0.0420658
0.0354659
0.0360685
0.0366811
0.0372598
0.0377808
0.0382355
0.0386215
0.0389387
0.0391882
0.0393733
0.0394989
0.0395722
0.0396025
0.0396015
0.0395845
0.0395676
0.0395757
0.0396413
0.0398011
0.0400816
0.0340578
0.034895
0.0355645
0.0360298
0.0363067
0.0364251
0.0364143
0.0363
0.0361048
0.0358478
0.0355457
0.0352131
0.0348632
0.0345089
0.0341634
0.033843
0.0335562
0.0333238
0.0331693
0.0331076
0.0292678
0.0283278
0.0275895
0.0269468
0.0263655
0.0258267
0.0253178
0.0248311
0.024362
0.0239081
0.0234682
0.0230425
0.0226321
0.0222393
0.0218675
0.0215214
0.0212037
0.0209152
0.0206669
0.0204653
0.00278738
0.00286084
0.00293551
0.00301042
0.00308426
0.00315612
0.00322541
0.00329177
0.00335491
0.00341464
0.00347081
0.00352333
0.00357217
0.00361728
0.00365865
0.00369628
0.00373038
0.00376123
0.00378903
0.00381412
0.0027893
0.00286281
0.00293764
0.00301282
0.0030871
0.00315954
0.00322961
0.00329694
0.00336126
0.00342238
0.00348019
0.00353461
0.00358562
0.00363321
0.00367742
0.00371832
0.00375602
0.00379102
0.00382368
0.00385449
0.0292891
0.0283486
0.0276127
0.0269775
0.026409
0.0258878
0.025401
0.0249399
0.0244993
0.0240759
0.023668
0.0232752
0.0228984
0.0225394
0.0222014
0.0218891
0.0216085
0.0213587
0.0211467
0.0209793
0.0340837
0.0349267
0.0356119
0.0361046
0.0364195
0.0365845
0.0366262
0.0365682
0.036431
0.0362325
0.0359886
0.0357131
0.0354191
0.0351192
0.0348266
0.034556
0.034325
0.0341427
0.0340294
0.0339992
0.0355004
0.0361304
0.0367859
0.0374198
0.0380041
0.0385265
0.0389815
0.0393667
0.0396825
0.039932
0.0401208
0.0402566
0.0403497
0.0404124
0.0404604
0.0405129
0.0405911
0.0407217
0.0409356
0.0412567
0.0365945
0.0369356
0.0372961
0.0376696
0.038045
0.0384158
0.038779
0.039132
0.0394718
0.0397958
0.0401023
0.0403915
0.040666
0.0409315
0.0411984
0.0414817
0.0418036
0.0421945
0.0426903
0.0433209
0.0375302
0.0376704
0.0378154
0.037976
0.0381486
0.0383296
0.0385182
0.0387143
0.0389171
0.0391252
0.0393375
0.0395538
0.0397757
0.0400077
0.0402583
0.0405417
0.0408797
0.0413036
0.0418524
0.0425617
0.038238
0.0381941
0.0382018
0.0382516
0.0383271
0.0384167
0.038515
0.0386191
0.0387272
0.0388376
0.0389492
0.0390623
0.0391785
0.0393024
0.0394424
0.0396127
0.0398352
0.0401418
0.0405739
0.0411728
0.0383626
0.0384263
0.0384856
0.0385509
0.0386201
0.038689
0.0387556
0.0388188
0.0388774
0.0389301
0.0389757
0.0390139
0.0390459
0.0390755
0.0391102
0.0391633
0.0392558
0.039419
0.039695
0.0401286
0.0383812
0.0384974
0.0386066
0.038713
0.0388141
0.0389061
0.0389863
0.0390535
0.0391064
0.0391437
0.0391641
0.0391672
0.0391537
0.0391268
0.0390933
0.0390654
0.0390632
0.0391173
0.0392696
0.039567
0.0383823
0.0385113
0.0386385
0.0387651
0.0388873
0.0389996
0.0390979
0.0391794
0.0392417
0.0392829
0.0393013
0.0392958
0.039267
0.0392176
0.0391539
0.0390877
0.0390385
0.0390363
0.0391232
0.0393469
0.0383823
0.0385113
0.0386385
0.0387651
0.0388873
0.0389996
0.0390979
0.0391794
0.0392417
0.0392829
0.0393013
0.0392958
0.039267
0.0392176
0.0391539
0.0390877
0.0390385
0.0390363
0.0391232
0.0393469
0.0383812
0.0384974
0.0386066
0.038713
0.0388141
0.0389061
0.0389863
0.0390535
0.0391064
0.0391437
0.0391641
0.0391672
0.0391537
0.0391268
0.0390933
0.0390654
0.0390632
0.0391173
0.0392696
0.039567
0.0383626
0.0384263
0.0384856
0.038551
0.0386201
0.038689
0.0387556
0.0388188
0.0388774
0.0389301
0.0389757
0.0390139
0.0390459
0.0390755
0.0391102
0.0391633
0.0392558
0.039419
0.039695
0.0401286
0.038238
0.0381941
0.0382018
0.0382516
0.0383271
0.0384167
0.038515
0.0386191
0.0387272
0.0388376
0.0389492
0.0390623
0.0391785
0.0393024
0.0394424
0.0396127
0.0398352
0.0401418
0.0405739
0.0411728
0.0375302
0.0376703
0.0378154
0.037976
0.0381486
0.0383296
0.0385182
0.0387143
0.0389171
0.0391252
0.0393375
0.0395538
0.0397757
0.0400077
0.0402583
0.0405417
0.0408797
0.0413036
0.0418524
0.0425617
0.0365945
0.0369356
0.0372961
0.0376696
0.0380449
0.0384158
0.038779
0.039132
0.0394718
0.0397958
0.0401023
0.0403915
0.040666
0.0409315
0.0411983
0.0414817
0.0418036
0.0421945
0.0426903
0.0433209
0.0355004
0.0361304
0.0367859
0.0374197
0.038004
0.0385265
0.0389815
0.0393667
0.0396825
0.039932
0.0401208
0.0402566
0.0403497
0.0404124
0.0404604
0.0405129
0.0405912
0.0407218
0.0409357
0.0412567
0.0340837
0.0349267
0.0356119
0.0361046
0.0364195
0.0365845
0.0366262
0.0365681
0.0364309
0.0362325
0.0359885
0.035713
0.035419
0.0351191
0.0348265
0.034556
0.0343249
0.0341427
0.0340294
0.0339992
0.0292891
0.0283485
0.0276127
0.0269775
0.026409
0.0258879
0.025401
0.02494
0.0244994
0.024076
0.0236681
0.0232753
0.0228985
0.0225395
0.0222015
0.0218892
0.0216086
0.0213588
0.0211468
0.0209793
0.0027893
0.00286281
0.00293763
0.00301282
0.00308709
0.00315954
0.00322961
0.00329693
0.00336125
0.00342238
0.00348019
0.00353461
0.00358561
0.00363321
0.00367742
0.00371832
0.00375602
0.00379102
0.00382368
0.00385449
0.00279145
0.00286503
0.00294
0.00301542
0.00309004
0.00316293
0.00323358
0.00330163
0.00336685
0.00342907
0.00348819
0.00354416
0.00359698
0.00364668
0.00369335
0.00373708
0.00377805
0.00381651
0.00385316
0.00388855
0.0293121
0.0283707
0.0276347
0.0270013
0.026437
0.0259226
0.025445
0.0249958
0.0245697
0.0241634
0.023775
0.0234041
0.0230512
0.022718
0.0224075
0.0221238
0.0218727
0.0216609
0.021486
0.0213547
0.0341106
0.0349542
0.0356426
0.0361431
0.0364713
0.036655
0.0367208
0.0366916
0.0365875
0.0364258
0.0362217
0.0359885
0.0357386
0.0354841
0.0352374
0.0350121
0.0348234
0.0346885
0.0346169
0.0346226
0.035529
0.0361635
0.0368304
0.0374838
0.0380959
0.0386538
0.0391507
0.039583
0.0399499
0.0402537
0.0404991
0.0406934
0.0408464
0.0409702
0.0410794
0.0411923
0.0413304
0.0415185
0.0417804
0.0421401
0.0366294
0.0369918
0.0373854
0.0378005
0.0382241
0.0386476
0.0390657
0.0394745
0.0398704
0.0402508
0.0406143
0.0409617
0.0412965
0.0416249
0.0419573
0.0423087
0.0426997
0.0431561
0.0437092
0.0443884
0.0375938
0.0378047