/*--------------------------------*- C++ -*----------------------------------*\
  =========                 |
  \\      /  F ield         | OpenFOAM: The Open Source CFD Toolbox
   \\    /   O peration     | Website:  https://openfoam.org
    \\  /    A nd           | Version:  10
     \\/     M anipulation  |
\*---------------------------------------------------------------------------*/
FoamFile
{
    format      ascii;
    class       volScalarField;
    location    "150";
    object      epsilon;
}
// * * * * * * * * * * * * * * * * * * * * * * * * * * * * * * * * * * * * * //

dimensions      [0 2 -3 0 0 0 0];

internalField   nonuniform List<scalar> 
112000
(
1.60806e+06
1.66361e+06
1.72213e+06
1.78308e+06
1.84556e+06
1.90922e+06
1.97405e+06
2.04018e+06
2.10775e+06
2.17695e+06
2.24807e+06
2.32147e+06
2.39759e+06
2.47699e+06
2.56036e+06
2.64853e+06
2.74248e+06
2.8432e+06
2.95436e+06
3.05179e+06
1.66184e+06
1.77709e+06
1.89343e+06
2.01079e+06
2.1285e+06
2.24623e+06
2.36393e+06
2.48164e+06
2.59943e+06
2.71743e+06
2.83587e+06
2.95508e+06
3.07554e+06
3.19788e+06
3.32295e+06
3.45188e+06
3.58638e+06
3.72893e+06
3.88882e+06
4.04307e+06
1.66877e+06
1.80092e+06
1.93906e+06
2.08096e+06
2.22489e+06
2.36968e+06
2.5146e+06
2.65921e+06
2.80324e+06
2.9466e+06
3.08936e+06
3.23173e+06
3.37408e+06
3.51698e+06
3.66119e+06
3.8078e+06
3.95846e+06
4.11562e+06
4.28965e+06
4.45423e+06
1.6702e+06
1.80696e+06
1.95357e+06
2.1074e+06
2.26616e+06
2.42809e+06
2.59179e+06
2.75619e+06
2.92047e+06
3.08406e+06
3.24663e+06
3.40807e+06
3.56849e+06
3.72821e+06
3.88782e+06
4.04817e+06
4.21062e+06
4.37707e+06
4.55746e+06
4.71994e+06
1.67032e+06
1.80773e+06
1.95614e+06
2.11307e+06
2.27628e+06
2.44402e+06
2.61487e+06
2.78764e+06
2.96136e+06
3.13529e+06
3.30894e+06
3.48202e+06
3.6545e+06
3.82654e+06
3.99858e+06
4.1713e+06
4.34585e+06
4.52371e+06
4.71431e+06
4.88151e+06
1.67029e+06
1.80766e+06
1.95629e+06
2.11389e+06
2.2784e+06
2.44823e+06
2.62208e+06
2.79883e+06
2.97752e+06
3.15737e+06
3.3378e+06
3.51844e+06
3.69913e+06
3.87994e+06
4.06119e+06
4.24347e+06
4.4278e+06
4.61548e+06
4.81584e+06
4.98978e+06
1.67027e+06
1.80757e+06
1.95614e+06
2.11378e+06
2.27845e+06
2.44861e+06
2.62304e+06
2.80066e+06
2.9806e+06
3.16211e+06
3.34466e+06
3.52794e+06
3.71181e+06
3.89639e+06
4.08201e+06
4.26933e+06
4.4594e+06
4.65355e+06
4.86129e+06
5.04229e+06
1.67026e+06
1.80751e+06
1.95603e+06
2.11361e+06
2.27825e+06
2.44843e+06
2.62295e+06
2.80078e+06
2.98107e+06
3.16314e+06
3.34649e+06
3.53081e+06
3.71603e+06
3.90228e+06
4.08994e+06
4.27969e+06
4.47264e+06
4.67022e+06
4.88211e+06
5.06746e+06
1.67026e+06
1.80749e+06
1.95596e+06
2.1135e+06
2.2781e+06
2.44824e+06
2.62272e+06
2.80054e+06
2.98084e+06
3.16295e+06
3.34641e+06
3.53093e+06
3.71645e+06
3.90313e+06
4.09139e+06
4.28196e+06
4.476e+06
4.675e+06
4.88883e+06
5.0765e+06
1.67026e+06
1.80748e+06
1.95593e+06
2.11346e+06
2.27803e+06
2.44814e+06
2.6226e+06
2.80039e+06
2.98067e+06
3.16277e+06
3.34624e+06
3.53079e+06
3.71638e+06
3.90318e+06
4.09163e+06
4.28246e+06
4.47686e+06
4.67637e+06
4.89091e+06
5.07947e+06
1.67026e+06
1.80748e+06
1.95593e+06
2.11346e+06
2.27803e+06
2.44814e+06
2.6226e+06
2.80039e+06
2.98067e+06
3.16277e+06
3.34624e+06
3.53079e+06
3.71638e+06
3.90318e+06
4.09163e+06
4.28246e+06
4.47686e+06
4.67637e+06
4.89091e+06
5.07947e+06
1.67026e+06
1.80749e+06
1.95596e+06
2.1135e+06
2.2781e+06
2.44824e+06
2.62272e+06
2.80054e+06
2.98084e+06
3.16295e+06
3.34641e+06
3.53093e+06
3.71645e+06
3.90313e+06
4.09139e+06
4.28196e+06
4.476e+06
4.675e+06
4.88883e+06
5.0765e+06
1.67026e+06
1.80751e+06
1.95603e+06
2.11361e+06
2.27825e+06
2.44843e+06
2.62295e+06
2.80078e+06
2.98107e+06
3.16314e+06
3.34649e+06
3.53081e+06
3.71603e+06
3.90228e+06
4.08994e+06
4.27969e+06
4.47264e+06
4.67022e+06
4.88212e+06
5.06746e+06
1.67027e+06
1.80757e+06
1.95614e+06
2.11378e+06
2.27845e+06
2.44861e+06
2.62304e+06
2.80066e+06
2.9806e+06
3.16211e+06
3.34466e+06
3.52794e+06
3.71181e+06
3.89639e+06
4.08201e+06
4.26933e+06
4.4594e+06
4.65355e+06
4.86129e+06
5.04229e+06
1.67029e+06
1.80766e+06
1.95629e+06
2.11389e+06
2.2784e+06
2.44823e+06
2.62208e+06
2.79883e+06
2.97752e+06
3.15737e+06
3.3378e+06
3.51844e+06
3.69913e+06
3.87995e+06
4.06119e+06
4.24348e+06
4.42781e+06
4.61549e+06
4.81584e+06
4.98978e+06
1.67032e+06
1.80773e+06
1.95614e+06
2.11307e+06
2.27628e+06
2.44403e+06
2.61487e+06
2.78764e+06
2.96136e+06
3.13529e+06
3.30894e+06
3.48202e+06
3.6545e+06
3.82655e+06
3.99858e+06
4.17131e+06
4.34585e+06
4.52371e+06
4.71432e+06
4.88152e+06
1.6702e+06
1.80696e+06
1.95357e+06
2.1074e+06
2.26616e+06
2.42809e+06
2.59179e+06
2.75619e+06
2.92047e+06
3.08406e+06
3.24663e+06
3.40807e+06
3.56849e+06
3.72822e+06
3.88782e+06
4.04818e+06
4.21062e+06
4.37708e+06
4.55746e+06
4.71994e+06
1.66877e+06
1.80092e+06
1.93906e+06
2.08096e+06
2.22489e+06
2.36968e+06
2.51461e+06
2.65921e+06
2.80324e+06
2.9466e+06
3.08936e+06
3.23173e+06
3.37409e+06
3.51698e+06
3.66119e+06
3.80781e+06
3.95847e+06
4.11563e+06
4.28966e+06
4.45425e+06
1.66184e+06
1.77709e+06
1.89343e+06
2.01079e+06
2.1285e+06
2.24623e+06
2.36393e+06
2.48164e+06
2.59944e+06
2.71744e+06
2.83588e+06
2.95509e+06
3.07556e+06
3.1979e+06
3.32296e+06
3.4519e+06
3.5864e+06
3.72895e+06
3.88885e+06
4.0431e+06
1.60806e+06
1.66361e+06
1.72213e+06
1.78308e+06
1.84556e+06
1.90922e+06
1.97405e+06
2.04018e+06
2.10774e+06
2.17695e+06
2.24807e+06
2.32146e+06
2.39758e+06
2.47699e+06
2.56036e+06
2.64853e+06
2.74247e+06
2.84319e+06
2.95435e+06
3.05178e+06
1.66118e+06
1.77468e+06
1.88822e+06
2.00171e+06
2.11447e+06
2.22614e+06
2.33662e+06
2.44591e+06
2.55421e+06
2.66186e+06
2.769e+06
2.87593e+06
2.98306e+06
3.09096e+06
3.20038e+06
3.31224e+06
3.42768e+06
3.5479e+06
3.67583e+06
3.80254e+06
394268
516163
623316
720918
811671
896556
975993
1.05026e+06
1.11965e+06
1.18446e+06
1.24484e+06
1.30098e+06
1.35317e+06
1.40191e+06
1.44798e+06
1.49272e+06
1.53856e+06
1.58984e+06
1.65959e+06
1.75514e+06
369814
477331
573232
660058
739852
813637
881914
944987
1.00307e+06
1.05631e+06
1.10481e+06
1.1487e+06
1.1881e+06
1.22329e+06
1.25471e+06
1.28324e+06
1.31058e+06
1.33994e+06
1.3827e+06
1.44484e+06
372488
485336
588489
683259
770818
851711
926153
994267
1.05616e+06
1.11191e+06
1.16161e+06
1.20531e+06
1.24311e+06
1.27516e+06
1.30174e+06
1.32344e+06
1.34145e+06
1.35806e+06
1.38333e+06
1.42027e+06
373429
487806
594151
693841
787649
875697
957823
1.03381e+06
1.10346e+06
1.1666e+06
1.22309e+06
1.27279e+06
1.31563e+06
1.35157e+06
1.3807e+06
1.40332e+06
1.42023e+06
1.43299e+06
1.45079e+06
1.47357e+06
373652
488083
594832
695558
791096
881555
966750
1.04641e+06
1.12025e+06
1.18797e+06
1.2493e+06
1.30396e+06
1.35172e+06
1.39239e+06
1.42585e+06
1.45221e+06
1.47196e+06
1.4862e+06
1.50363e+06
1.52196e+06
373760
488158
594893
695790
791772
882987
969281
1.0504e+06
1.12607e+06
1.19596e+06
1.25978e+06
1.31721e+06
1.36795e+06
1.41175e+06
1.44843e+06
1.47798e+06
1.50075e+06
1.51763e+06
1.53713e+06
1.55559e+06
373825
488207
594883
695746
791763
883103
969625
1.0511e+06
1.12727e+06
1.19784e+06
1.26251e+06
1.32097e+06
1.37294e+06
1.41815e+06
1.45641e+06
1.48767e+06
1.51229e+06
1.53104e+06
1.55247e+06
1.57224e+06
373862
488241
594883
695708
791707
883061
969633
1.0512e+06
1.12752e+06
1.19831e+06
1.26328e+06
1.32214e+06
1.3746e+06
1.4204e+06
1.45936e+06
1.49145e+06
1.517e+06
1.53681e+06
1.55946e+06
1.58032e+06
373878
488259
594887
695692
791677
883024
969600
1.05118e+06
1.12753e+06
1.19837e+06
1.26341e+06
1.32236e+06
1.37496e+06
1.42093e+06
1.46012e+06
1.49249e+06
1.51838e+06
1.5386e+06
1.56179e+06
1.58319e+06
373878
488259
594887
695692
791677
883024
969600
1.05118e+06
1.12753e+06
1.19837e+06
1.26341e+06
1.32236e+06
1.37496e+06
1.42093e+06
1.46012e+06
1.49249e+06
1.51838e+06
1.5386e+06
1.56179e+06
1.58319e+06
373862
488241
594883
695708
791707
883061
969633
1.0512e+06
1.12752e+06
1.19831e+06
1.26328e+06
1.32214e+06
1.3746e+06
1.4204e+06
1.45936e+06
1.49145e+06
1.517e+06
1.53681e+06
1.55947e+06
1.58032e+06
373825
488207
594884
695746
791763
883103
969625
1.0511e+06
1.12727e+06
1.19784e+06
1.26251e+06
1.32097e+06
1.37294e+06
1.41815e+06
1.45641e+06
1.48767e+06
1.51229e+06
1.53104e+06
1.55247e+06
1.57224e+06
373760
488158
594893
695790
791772
882987
969281
1.0504e+06
1.12607e+06
1.19596e+06
1.25978e+06
1.31721e+06
1.36795e+06
1.41176e+06
1.44843e+06
1.47798e+06
1.50075e+06
1.51763e+06
1.53713e+06
1.55559e+06
373652
488083
594832
695558
791096
881555
966751
1.04641e+06
1.12025e+06
1.18797e+06
1.2493e+06
1.30396e+06
1.35172e+06
1.39239e+06
1.42585e+06
1.45221e+06
1.47196e+06
1.4862e+06
1.50363e+06
1.52197e+06
373429
487806
594151
693841
787650
875697
957823
1.03381e+06
1.10346e+06
1.1666e+06
1.22309e+06
1.27279e+06
1.31563e+06
1.35157e+06
1.3807e+06
1.40332e+06
1.42023e+06
1.433e+06
1.45079e+06
1.47357e+06
372488
485336
588489
683259
770818
851711
926153
994267
1.05616e+06
1.11191e+06
1.16161e+06
1.20531e+06
1.24311e+06
1.27516e+06
1.30174e+06
1.32344e+06
1.34145e+06
1.35806e+06
1.38333e+06
1.42028e+06
369814
477331
573232
660058
739852
813638
881915
944988
1.00307e+06
1.05631e+06
1.10481e+06
1.1487e+06
1.1881e+06
1.22329e+06
1.25471e+06
1.28324e+06
1.31058e+06
1.33994e+06
1.3827e+06
1.44484e+06
394268
516163
623314
720917
811669
896554
975990
1.05026e+06
1.11965e+06
1.18446e+06
1.24484e+06
1.30097e+06
1.35317e+06
1.40191e+06
1.44798e+06
1.49272e+06
1.53856e+06
1.58984e+06
1.65959e+06
1.75514e+06
1.66118e+06
1.77468e+06
1.88821e+06
2.0017e+06
2.11446e+06
2.22612e+06
2.3366e+06
2.44589e+06
2.55419e+06
2.66183e+06
2.76898e+06
2.87591e+06
2.98304e+06
3.09094e+06
3.20036e+06
3.31222e+06
3.42766e+06
3.54788e+06
3.67581e+06
3.80253e+06
1.66867e+06
1.79992e+06
1.93619e+06
2.07511e+06
2.21487e+06
2.35424e+06
2.49243e+06
2.62897e+06
2.76357e+06
2.8963e+06
3.02768e+06
3.15779e+06
3.28685e+06
3.41532e+06
3.54381e+06
3.6732e+06
3.8046e+06
3.93929e+06
4.07965e+06
4.22171e+06
371827
481278
579445
668899
751762
829149
901655
969700
1.03363e+06
1.09381e+06
1.1508e+06
1.20492e+06
1.25664e+06
1.30663e+06
1.35597e+06
1.40638e+06
1.46073e+06
1.52366e+06
1.60423e+06
1.70614e+06
335857
365713
401948
441732
483420
525848
568103
609503
649564
688016
724711
759569
792668
824308
855133
886345
920111
960193
1.01445e+06
1.08759e+06
340452
371128
404468
438683
472991
506925
540067
572040
602524
631261
658056
682784
705424
726112
745241
763643
782928
806019
839564
887700
342348
376166
413285
451399
489304
526263
561707
595181
626326
654864
680586
703345
723075
739834
753874
765796
776832
789263
808843
838639
342685
377078
415454
455556
496012
535884
574424
611015
645157
676446
704556
729236
750313
767722
781573
792270
800754
808838
821684
841298
342762
377158
415703
456291
497586
538641
578679
617045
653180
686614
716945
743840
767037
786375
801849
813720
822736
830402
841537
857309
342800
377160
415669
456298
497760
539123
579627
618623
655557
689950
721386
749506
774017
794716
811546
824697
834820
843265
854696
869779
342823
377163
415630
456231
497700
539122
579741
618920
656116
690858
722734
751386
776518
797917
815512
829473
840415
849625
861720
877106
342834
377166
415613
456193
497653
539078
579718
618938
656199
691038
723046
751869
777213
798868
816760
831057
842366
851959
864442
880124
342834
377166
415613
456193
497653
539078
579718
618938
656199
691038
723046
751869
777213
798868
816760
831057
842366
851959
864442
880124
342823
377163
415630
456231
497701
539122
579741
618920
656116
690858
722734
751386
776518
797917
815512
829473
840415
849625
861720
877106
342800
377160
415669
456298
497760
539123
579627
618623
655557
689950
721386
749506
774017
794716
811546
824697
834820
843265
854696
869779
342762
377158
415703
456291
497586
538641
578680
617045
653180
686614
716945
743840
767037
786375
801849
813720
822736
830403
841537
857310
342685
377078
415454
455556
496012
535884
574424
611015
645157
676446
704556
729236
750313
767723
781574
792270
800755
808838
821684
841298
342348
376166
413285
451399
489304
526263
561707
595181
626326
654864
680586
703345
723076
739834
753874
765796
776832
789263
808843
838639
340452
371128
404468
438683
472991
506925
540067
572040
602524
631261
658056
682784
705424
726111
745241
763642
782928
806018
839562
887699
335857
365713
401948
441732
483421
525848
568104
609504
649565
688017
724712
759570
792669
824309
855134
886346
920111
960193
1.01445e+06
1.08759e+06
371827
481278
579444
668897
751760
829147
901653
969698
1.03363e+06
1.09381e+06
1.1508e+06
1.20492e+06
1.25664e+06
1.30663e+06
1.35596e+06
1.40638e+06
1.46073e+06
1.52366e+06
1.60422e+06
1.70614e+06
1.66867e+06
1.79991e+06
1.93618e+06
2.07509e+06
2.21485e+06
2.35422e+06
2.49241e+06
2.62895e+06
2.76354e+06
2.89628e+06
3.02766e+06
3.15776e+06
3.28683e+06
3.4153e+06
3.54379e+06
3.67318e+06
3.80458e+06
3.93927e+06
4.07963e+06
4.2217e+06
1.67017e+06
1.80619e+06
1.95111e+06
2.10211e+06
2.25679e+06
2.41324e+06
2.57e+06
2.72593e+06
2.88015e+06
3.03204e+06
3.18123e+06
3.32756e+06
3.4711e+06
3.61214e+06
3.75146e+06
3.89066e+06
4.03069e+06
4.17273e+06
4.31867e+06
4.46736e+06
374548
489467
595118
692930
784247
869800
950009
1.02522e+06
1.0958e+06
1.16214e+06
1.22467e+06
1.28392e+06
1.34054e+06
1.39529e+06
1.44941e+06
1.50531e+06
1.56572e+06
1.63475e+06
1.71886e+06
1.82112e+06
341567
373163
407594
443186
479269
515476
551487
587018
621857
655865
688993
721256
752842
784258
816400
850565
888893
934814
993991
1.07034e+06
371435
379933
391797
405818
421370
438139
455847
474195
492896
511697
530402
548926
567281
585650
604500
624731
647953
676880
716259
769904
376671
388492
401213
414247
427420
440734
454150
467552
480779
493656
506023
517765
528844
539352
549594
560222
572467
588465
612192
646949
378040
392044
407284
422830
438259
453416
468167
482345
495760
508219
519545
529597
538291
545650
551868
557425
563283
571154
584447
605856
378273
392643
408621
425305
442187
458998
475501
491432
506515
520475
533060
544049
553280
560687
566354
570618
574238
578618
586781
600857
378327
392701
408770
425710
443040
460485
477793
494677
510828
525935
539696
551841
562147
570479
576840
581466
584978
588578
595052
606117
378352
392706
408751
425708
443123
460733
478292
495521
512112
527749
542120
554938
565958
575012
582066
587300
591263
595049
601317
611533
378364
392708
408732
425676
443096
460736
478354
495675
512398
528209
542798
555875
567192
576573
583969
589544
593817
597839
604219
614308
378364
392708
408732
425676
443096
460736
478354
495675
512398
528209
542798
555875
567192
576573
583969
589544
593817
597839
604219
614308
378352
392706
408751
425708
443123
460733
478292
495521
512112
527749
542120
554938
565958
575012
582066
587300
591263
595049
601317
611533
378327
392701
408770
425710
443040
460485
477793
494677
510828
525935
539696
551841
562147
570479
576840
581466
584978
588578
595052
606117
378273
392643
408621
425305
442187
458998
475501
491432
506515
520476
533060
544049
553281
560687
566354
570618
574238
578618
586781
600858
378040
392044
407284
422830
438259
453416
468167
482345
495760
508219
519545
529597
538291
545650
551868
557425
563283
571154
584447
605855
376671
388492
401213
414247
427420
440734
454150
467552
480779
493655
506023
517765
528844
539352
549593
560222
572466
588464
612191
646948
371435
379933
391797
405818
421370
438139
455847
474195
492896
511697
530401
548925
567280
585649
604499
624730
647952
676878
716257
769902
341567
373163
407594
443187
479269
515477
551488
587019
621858
655867
688995
721258
752843
784260
816401
850566
888894
934814
993990
1.07034e+06
374548
489466
595117
692929
784245
869798
950007
1.02522e+06
1.0958e+06
1.16214e+06
1.22467e+06
1.28392e+06
1.34054e+06
1.39529e+06
1.4494e+06
1.50531e+06
1.56572e+06
1.63475e+06
1.71886e+06
1.82112e+06
1.67017e+06
1.80618e+06
1.9511e+06
2.1021e+06
2.25677e+06
2.41322e+06
2.56998e+06
2.72591e+06
2.88013e+06
3.03202e+06
3.1812e+06
3.32753e+06
3.47108e+06
3.61212e+06
3.75144e+06
3.89064e+06
4.03067e+06
4.17272e+06
4.31866e+06
4.46735e+06
1.6703e+06
1.80706e+06
1.95393e+06
2.10823e+06
2.26752e+06
2.42991e+06
2.59382e+06
2.75796e+06
2.92126e+06
3.08287e+06
3.24219e+06
3.39885e+06
3.55269e+06
3.70377e+06
3.8527e+06
4.00063e+06
4.14828e+06
4.29666e+06
4.44727e+06
4.60038e+06
375444
491922
600860
703746
801523
894511
982779
1.06638e+06
1.14544e+06
1.22015e+06
1.29084e+06
1.35794e+06
1.42207e+06
1.48409e+06
1.54524e+06
1.60755e+06
1.67347e+06
1.7466e+06
1.83182e+06
1.93189e+06
343644
378696
417380
457523
498069
538436
578214
617118
654979
691740
727452
762285
796564
830761
865844
903259
945025
994156
1.05493e+06
1.13044e+06
377781
390491
404243
418506
433167
448297
463933
480036
496532
513347
530440
547820
565615
584184
604104
626334
652435
684839
727168
782458
408600
409689
412575
416789
421978
427963
434627
441851
449515
457508
465756
474250
483051
492357
502570
514417
529119
548636
576003
613982
413122
417597
422240
426963
431699
436448
441208
445948
450607
455115
459414
463477
467336
471126
475144
479952
486525
496454
512302
536463
414136
420214
426681
433227
439637
445806
451666
457135
462119
466524
470262
473276
475554
477171
478343
479509
481464
485528
493919
508666
414303
420648
427629
434945
442327
449599
456622
463250
469328
474703
479234
482805
485345
486862
487491
487569
487753
489169
493793
503354
414338
420691
427740
435232
442912
450601
458147
465388
472148
478245
483504
487772
490935
492950
493892
494024
493909
494543
497749
505038
414350
420693
427736
435248
442988
450782
458483
465931
472946
479343
484938
489562
493086
495443
496681
497027
496998
497526
500358
506897
414350
420693
427736
435248
442988
450782
458483
465931
472946
479343
484938
489562
493086
495443
496681
497027
496998
497526
500358
506897
414338
420691
427740
435232
442912
450601
458147
465388
472148
478245
483504
487772
490935
492950
493892
494024
493909
494543
497749
505038
414303
420648
427629
434945
442327
449599
456622
463250
469328
474703
479234
482805
485345
486862
487491
487569
487753
489169
493793
503354
414136
420214
426681
433227
439637
445806
451666
457135
462119
466524
470262
473276
475554
477171
478343
479509
481464
485528
493919
508666
413122
417597
422240
426963
431699
436448
441208
445948
450607
455115
459414
463477
467336
471126
475143
479952
486525
496454
512302
536462
408600
409689
412575
416789
421978
427963
434627
441851
449515
457508
465756
474250
483051
492356
502570
514416
529118
548635
576001
613980
377781
390490
404243
418505
433167
448297
463933
480036
496532
513347
530440
547819
565614
584183
604103
626333
652433
684837
727166
782455
343644
378696
417380
457523
498069
538436
578215
617119
654981
691742
727453
762287
796565
830762
865845
903260
945026
994156
1.05493e+06
1.13044e+06
375445
491922
600859
703744
801521
894509
982777
1.06638e+06
1.14544e+06
1.22015e+06
1.29084e+06
1.35794e+06
1.42207e+06
1.48408e+06
1.54524e+06
1.60754e+06
1.67347e+06
1.7466e+06
1.83182e+06
1.93189e+06
1.6703e+06
1.80705e+06
1.95392e+06
2.10821e+06
2.2675e+06
2.42989e+06
2.5938e+06
2.75794e+06
2.92124e+06
3.08285e+06
3.24217e+06
3.39883e+06
3.55267e+06
3.70375e+06
3.85268e+06
4.00062e+06
4.14826e+06
4.29665e+06
4.44726e+06
4.60037e+06
1.67027e+06
1.80704e+06
1.95424e+06
2.10938e+06
2.27019e+06
2.43489e+06
2.602e+06
2.77024e+06
2.93846e+06
3.10571e+06
3.27121e+06
3.43438e+06
3.59487e+06
3.7525e+06
3.90735e+06
4.05968e+06
4.21061e+06
4.36167e+06
4.51402e+06
4.66851e+06
375607
492100
601410
705301
804779
900161
991508
1.07884e+06
1.16222e+06
1.24177e+06
1.31771e+06
1.3904e+06
1.46035e+06
1.52834e+06
1.59545e+06
1.66325e+06
1.73395e+06
1.81096e+06
1.89817e+06
1.99825e+06
343973
379623
419626
461864
505131
548677
591955
634570
676270
716941
756600
795404
833678
871959
911081
952178
997330
1.04915e+06
1.11103e+06
1.18562e+06
379311
394448
411071
428321
445875
463690
481766
500079
518598
537316
556267
575557
595400
616153
638401
663191
691982
726908
770858
826370
414154
419375
424824
430471
436309
442401
448817
455595
462752
470304
478286
486778
495937
506058
517626
531401
548553
570840
600709
640489
443297
441415
440671
440798
441518
442664
444154
445932
447959
450209
452684
455432
458566
462300
467008
473298
482129
494957
513861
540917
447142
448284
449343
450340
451233
452000
452644
453163
453546
453782
453869
453834
453757
453802
454264
455644
458742
464790
475584
492954
447935
450342
452829
455248
457452
459347
460884
462028
462742
462992
462755
462030
460864
459373
457793
456542
456306
458154
463688
474536
448060
450682
453569
456571
459496
462199
464577
466547
468027
468939
469219
468824
467754
466080
463978
461798
460141
459962
462728
469922
448080
450716
453667
456808
459949
462940
465667
468030
469930
471266
471950
471912
471122
469618
467542
465200
463142
462262
463954
469620
448080
450716
453667
456808
459949
462940
465667
468030
469930
471266
471950
471912
471122
469618
467542
465200
463142
462262
463954
469620
448060
450682
453569
456571
459496
462199
464577
466547
468027
468939
469219
468824
467754
466080
463978
461798
460141
459962
462728
469922
447935
450342
452829
455248
457452
459347
460884
462028
462742
462992
462755
462030
460864
459373
457793
456542
456306
458154
463688
474536
447142
448284
449343
450340
451233
452000
452644
453163
453546
453782
453869
453834
453757
453802
454264
455644
458742
464790
475584
492954
443297
441415
440671
440798
441518
442664
444154
445932
447959
450209
452684
455432
458566
462300
467008
473298
482129
494956
513861
540917
414154
419375
424824
430471
436308
442401
448817
455595
462752
470304
478286
486778
495937
506057
517626
531400
548553
570839
600708
640487
379311
394448
411070
428321
445874
463689
481765
500078
518598
537316
556266
575557
595399
616152
638400
663189
691980
726906
770855
826367
343973
379623
419626
461864
505131
548678
591956
634570
676271
716942
756602
795406
833679
871960
911082
952178
997330
1.04915e+06
1.11103e+06
1.18562e+06
375607
492100
601408
705300
804777
900159
991506
1.07884e+06
1.16222e+06
1.24177e+06
1.31771e+06
1.3904e+06
1.46035e+06
1.52833e+06
1.59545e+06
1.66325e+06
1.73395e+06
1.81096e+06
1.89817e+06
1.99825e+06
1.67027e+06
1.80703e+06
1.95423e+06
2.10937e+06
2.27017e+06
2.43487e+06
2.60198e+06
2.77022e+06
2.93844e+06
3.10569e+06
3.27119e+06
3.43436e+06
3.59485e+06
3.75249e+06
3.90733e+06
4.05967e+06
4.2106e+06
4.36167e+06
4.51402e+06
4.66851e+06
1.67024e+06
1.80697e+06
1.95422e+06
2.10956e+06
2.27076e+06
2.43609e+06
2.60413e+06
2.77362e+06
2.94344e+06
3.11265e+06
3.28047e+06
3.44627e+06
3.60964e+06
3.77033e+06
3.9283e+06
4.08369e+06
4.23685e+06
4.38948e+06
4.54264e+06
4.69738e+06
375672
492115
601422
705534
805552
901841
994495
1.08356e+06
1.16911e+06
1.25125e+06
1.33018e+06
1.40623e+06
1.47988e+06
1.55182e+06
1.62306e+06
1.695e+06
1.76956e+06
1.84961e+06
1.93851e+06
2.03904e+06
344031
379676
419860
462616
506784
551611
596538
641148
685158
728416
770899
812724
854173
895736
938170
982586
1.0305e+06
1.08435e+06
1.14693e+06
1.22073e+06
379544
395067
412490
430995
450184
469925
490141
510751
531680
552892
574403
596312
618829
642322
667373
694832
726040
762870
807697
862790
415323
422362
429941
437821
445871
454085
462503
471163
480103
489374
499058
509286
520267
532316
545918
561831
581148
605408
636644
676913
448114
449931
451695
453482
455298
457173
459158
461308
463671
466299
469266
472680
476712
481633
487856
495996
506959
522047
543007
571680
475216
471760
469138
467163
465621
464363
463311
462423
461676
461067
460618
460395
460520
461204
462784
465779
470964
479465
492813
512667
478542
477760
476825
475787
474629
473327
471876
470275
468524
466627
464602
462496
460409
458513
457095
456610
457744
461503
469275
482599
479186
479448
479685
479805
479705
479307
478566
477456
475956
474054
471750
469076
466106
462986
459971
457469
456113
456838
460950
469916
479280
479726
480288
480857
481288
481458
481282
480693
479637
478072
475975
473350
470250
466800
463228
459918
457472
456788
459134
465947
479280
479726
480288
480857
481288
481458
481282
480693
479637
478072
475975
473350
470250
466800
463228
459918
457472
456788
459134
465947
479186
479448
479685
479805
479705
479307
478566
477456
475956
474054
471750
469076
466106
462986
459971
457469
456113
456838
460950
469916
478542
477760
476825
475787
474629
473327
471876
470275
468524
466627
464602
462496
460409
458513
457095
456610
457744
461503
469275
482598
475216
471760
469138
467163
465621
464363
463311
462423
461676
461067
460618
460395
460520
461204
462784
465779
470964
479465
492812
512667
448114
449931
451695
453482
455298
457173
459158
461308
463671
466299
469266
472679
476711
481632
487856
495996
506959
522047
543006
571679
415323
422362
429941
437821
445871
454085
462502
471162
480103
489374
499058
509286
520266
532316
545917
561831
581147
605407
636642
676911
379544
395067
412490
430995
450184
469925
490141
510750
531680
552891
574402
596311
618828
642321
667372
694831
726038
762868
807694
862787
344031
379676
419860
462616
506784
551611
596539
641149
685159
728417
770900
812725
854174
895737
938170
982586
1.0305e+06
1.08435e+06
1.14693e+06
1.22073e+06
375672
492114
601421
705532
805550
901839
994493
1.08356e+06
1.16911e+06
1.25125e+06
1.33018e+06
1.40623e+06
1.47988e+06
1.55182e+06
1.62306e+06
1.695e+06
1.76956e+06
1.84961e+06
1.93851e+06
2.03904e+06
1.67024e+06
1.80697e+06
1.95421e+06
2.10955e+06
2.27075e+06
2.43608e+06
2.60411e+06
2.7736e+06
2.94342e+06
3.11263e+06
3.28044e+06
3.44625e+06
3.60962e+06
3.77032e+06
3.92829e+06
4.08368e+06
4.23684e+06
4.38947e+06
4.54263e+06
4.69738e+06
1.67023e+06
1.80694e+06
1.95421e+06
2.10965e+06
2.27104e+06
2.43669e+06
2.60518e+06
2.7753e+06
2.94597e+06
3.11623e+06
3.28529e+06
3.45252e+06
3.61746e+06
3.77981e+06
3.93943e+06
4.09637e+06
4.25086e+06
4.40332e+06
4.55569e+06
4.70905e+06
375707
492131
601414
705575
805773
902407
995599
1.08543e+06
1.17201e+06
1.25547e+06
1.33605e+06
1.41408e+06
1.49004e+06
1.56463e+06
1.63878e+06
1.71379e+06
1.79139e+06
1.87383e+06
1.96432e+06
2.06571e+06
344055
379662
419822
462654
507047
552276
597800
643222
688275
732814
776816
820391
863804
907507
952193
998862
1.0489e+06
1.10415e+06
1.16717e+06
1.24042e+06
379584
395104
412624
431415
451105
471565
492714
514464
536733
559471
582680
606441
630942
656515
683692
713258
746342
784466
829732
884285
415494
422819
430966
439717
448893
458434
468330
478584
489209
500237
511742
523849
536763
550798
566424
584316
605416
631097
663090
703327
449056
452333
455799
459368
462959
466551
470177
473892
477760
481858
486290
491197
496782
503332
511258
521148
533850
550517
572660
602020
479456
479293
478987
478638
478269
477897
477555
477286
477135
477156
477421
478038
479170
481058
484059
488691
495687
506071
521201
542670
504729
500288
496539
493329
490478
487852
485370
482993
480699
478490
476398
474492
472896
471816
471567
472615
475636
481580
491717
507568
507666
505615
503413
501103
498669
496084
493334
490416
487333
484099
480748
477349
474019
470953
468451
466963
467143
469913
476516
488456
508197
507020
505761
504330
502643
500634
498265
495524
492410
488940
485153
481121
476969
472891
469192
466321
464931
465943
470600
480417
508197
507020
505761
504330
502643
500634
498265
495524
492410
488940
485153
481121
476969
472891
469192
466321
464931
465943
470600
480417
507666
505615
503413
501103
498669
496084
493334
490416
487333
484099
480749
477349
474019
470953
468451
466963
467143
469913
476516
488456
504729
500287
496539
493329
490478
487852
485370
482993
480699
478491
476398
474492
472896
471816
471567
472615
475636
481580
491717
507568
479456
479293
478987
478638
478269
477897
477555
477286
477135
477156
477421
478038
479170
481058
484059
488691
495687
506071
521201
542670
449056
452333
455798
459368
462959
466551
470177
473892
477760
481858
486290
491197
496781
503332
511257
521148
533850
550516
572659
602019
415494
422819
430966
439716
448893
458434
468330
478584
489208
500237
511742
523848
536762
550798
566424
584315
605415
631096
663089
703325
379584
395104
412624
431415
451105
471564
492713
514463
536733
559470
582679
606440
630940
656514
683690
713257
746340
784463
829729
884282
344055
379662
419822
462654
507047
552276
597800
643223
688276
732815
776817
820392
863805
907507
952193
998862
1.0489e+06
1.10415e+06
1.16717e+06
1.24042e+06
375707
492131
601413
705573
805771
902405
995597
1.08543e+06
1.172e+06
1.25547e+06
1.33605e+06
1.41408e+06
1.49004e+06
1.56463e+06
1.63878e+06
1.71379e+06
1.79139e+06
1.87383e+06
1.96432e+06
2.06571e+06
1.67023e+06
1.80694e+06
1.9542e+06
2.10964e+06
2.27103e+06
2.43667e+06
2.60516e+06
2.77528e+06
2.94595e+06
3.11621e+06
3.28527e+06
3.4525e+06
3.61745e+06
3.77979e+06
3.93941e+06
4.09636e+06
4.25085e+06
4.40332e+06
4.55569e+06
4.70905e+06
1.67022e+06
1.80693e+06
1.95424e+06
2.10977e+06
2.27132e+06
2.4372e+06
2.606e+06
2.77653e+06
2.94769e+06
3.11853e+06
3.28826e+06
3.45624e+06
3.62196e+06
3.7851e+06
3.94547e+06
4.10305e+06
4.25797e+06
4.41052e+06
4.56134e+06
4.71235e+06
375722
492152
601452
705682
806045
902967
996594
1.08703e+06
1.17442e+06
1.25892e+06
1.34078e+06
1.42037e+06
1.49816e+06
1.57484e+06
1.65132e+06
1.7288e+06
1.80887e+06
1.8935e+06
1.9853e+06
2.08747e+06
344067
379658
419800
462650
507132
552540
598352
644189
689804
735068
779971
824628
869299
914416
960625
1.00884e+06
1.06029e+06
1.11661e+06
1.17984e+06
1.2526e+06
379596
395090
412594
431426
451244
471935
493432
515659
538546
562048
586170
610988
636677
663543
692069
722960
757206
796139
841493
895439
415518
422844
431065
440016
449538
459568
470095
481118
492645
504701
517347
530698
544942
560370
577409
596675
619022
645607
677939
717975
449188
452698
456611
460855
465308
469909
474653
479569
484700
490112
495899
502199
509207
517205
526591
537920
551955
569731
592622
622396
480241
481302
482418
483552
484657
485710
486732
487763
488860
490093
491558
493386
495760
498943
503301
509345
517781
529568
545991
568707
508518
507037
505405
503710
501973
500201
498411
496632
494903
493274
491820
490652
489935
489908
490918
493455
498197
506079
518346
536620
532209
527063
522504
518377
514515
510797
507153
503552
499991
496492
493112
489947
487155
484971
483740
483952
486294
491704
501438
517133
534792
531671
528296
524706
520908
516908
512725
508391
503949
499455
494989
490668
486663
483220
480697
479595
480615
484710