/*--------------------------------*- C++ -*----------------------------------*\
  =========                 |
  \\      /  F ield         | OpenFOAM: The Open Source CFD Toolbox
   \\    /   O peration     | Website:  https://openfoam.org
    \\  /    A nd           | Version:  10
     \\/     M anipulation  |
\*---------------------------------------------------------------------------*/
FoamFile
{
    format      ascii;
    class       volScalarField;
    location    "150";
    object      k;
}
// * * * * * * * * * * * * * * * * * * * * * * * * * * * * * * * * * * * * * //

dimensions      [0 2 -2 0 0 0 0];

internalField   nonuniform List<scalar> 
112000
(
293.012
299.722
306.711
313.906
321.197
328.541
335.937
343.398
350.939
358.579
366.347
374.278
382.416
390.813
399.534
408.655
418.262
428.441
439.537
449.147
299.51
313.203
326.727
340.092
353.238
366.146
378.827
391.301
403.587
415.711
427.704
439.608
451.475
463.37
475.373
487.592
500.177
513.345
527.917
541.786
300.341
315.996
331.955
347.958
363.823
379.442
394.759
409.751
424.416
438.766
452.826
466.633
480.238
493.703
507.108
520.558
534.2
548.248
563.596
577.921
300.514
316.702
333.609
350.899
368.309
385.651
402.796
419.654
436.168
452.308
468.066
483.457
498.511
513.278
527.825
542.241
556.652
571.227
586.816
600.681
300.527
316.792
333.901
351.528
369.404
387.337
405.184
422.84
440.229
457.303
474.036
490.426
506.49
522.264
537.803
553.181
568.507
583.915
600.204
614.313
300.524
316.784
333.918
351.62
369.634
387.781
405.928
423.971
441.83
459.447
476.788
493.839
510.605
527.112
543.402
559.543
575.632
591.786
608.79
623.363
300.522
316.773
333.901
351.607
369.639
387.821
406.026
424.156
442.134
459.906
477.442
494.728
511.772
528.6
545.258
561.814
578.367
595.035
612.614
627.728
300.521
316.767
333.888
351.588
369.617
387.802
406.017
424.168
442.181
460.007
477.615
494.996
512.159
529.133
545.963
562.722
579.512
596.455
614.363
629.816
300.52
316.763
333.881
351.577
369.601
387.782
405.994
424.143
442.158
459.989
477.608
495.007
512.197
529.209
546.092
562.921
579.801
596.862
614.926
630.564
300.52
316.762
333.878
351.571
369.594
387.772
405.981
424.128
442.141
459.971
477.591
494.994
512.191
529.214
546.113
562.964
579.876
596.979
615.1
630.81
300.52
316.762
333.878
351.571
369.594
387.772
405.981
424.128
442.141
459.971
477.591
494.994
512.191
529.214
546.113
562.964
579.876
596.979
615.1
630.81
300.52
316.763
333.881
351.577
369.601
387.782
405.994
424.143
442.158
459.989
477.608
495.007
512.197
529.209
546.092
562.921
579.801
596.862
614.926
630.564
300.521
316.767
333.888
351.588
369.617
387.802
406.017
424.168
442.181
460.007
477.615
494.996
512.159
529.133
545.963
562.722
579.512
596.455
614.363
629.816
300.522
316.773
333.901
351.607
369.639
387.821
406.027
424.156
442.134
459.907
477.442
494.728
511.772
528.6
545.258
561.814
578.367
595.035
612.614
627.728
300.524
316.784
333.918
351.62
369.634
387.781
405.928
423.971
441.83
459.447
476.788
493.839
510.605
527.112
543.402
559.543
575.632
591.786
608.791
623.363
300.527
316.792
333.901
351.528
369.404
387.337
405.184
422.84
440.229
457.303
474.036
490.426
506.49
522.264
537.803
553.181
568.507
583.915
600.204
614.313
300.514
316.702
333.609
350.899
368.309
385.651
402.796
419.654
436.168
452.308
468.066
483.457
498.512
513.279
527.825
542.241
556.652
571.228
586.816
600.682
300.341
315.996
331.955
347.958
363.823
379.442
394.759
409.751
424.417
438.766
452.826
466.633
480.238
493.703
507.109
520.558
534.2
548.248
563.597
577.922
299.51
313.202
326.727
340.092
353.238
366.146
378.828
391.301
403.588
415.712
427.705
439.609
451.476
463.371
475.375
487.594
500.179
513.347
527.918
541.788
293.012
299.722
306.711
313.906
321.197
328.54
335.937
343.398
350.938
358.579
366.347
374.278
382.415
390.812
399.534
408.654
418.261
428.44
439.536
449.147
299.43
312.919
326.127
339.067
351.684
363.96
375.904
387.536
398.893
410.023
420.954
431.723
442.378
452.983
463.611
474.352
485.31
496.593
508.46
520.078
449.797
488.336
516.013
537.737
555.738
570.959
583.913
594.963
604.368
612.323
619.025
624.665
629.45
633.632
637.545
641.687
646.872
654.487
668.334
690.69
457.807
507.964
545.006
573.499
596.26
614.815
630.064
642.618
652.921
661.309
668.054
673.399
677.583
680.883
683.66
686.45
690.148
696.299
709.447
732.358
461.111
516.727
560.05
594.648
622.847
646.012
665.018
680.503
692.966
702.812
710.376
715.951
719.813
722.254
723.627
724.429
725.47
728.13
736.853
753.857
461.915
518.783
564.389
602.109
633.892
660.805
683.51
702.49
718.135
730.776
740.699
748.168
753.431
756.755
758.45
758.949
758.938
759.564
764.969
776.396
462.093
519.036
564.995
603.472
636.383
664.733
689.125
709.976
727.607
742.276
754.204
763.592
770.633
775.535
778.552
780.038
780.577
781.129
785.611
794.448
462.173
519.09
565.058
603.678
636.897
665.723
690.756
712.404
730.971
746.694
759.765
770.357
778.633
784.769
788.982
791.587
793.106
794.399
799.274
807.62
462.22
519.12
565.05
603.658
636.916
665.84
691.031
712.907
731.775
747.875
761.4
772.518
781.385
788.17
793.077
796.408
798.664
800.668
806.205
814.894
462.247
519.14
565.045
603.63
636.883
665.821
691.049
712.988
731.95
748.179
761.871
773.196
782.313
789.389
794.632
798.34
801.015
803.47
809.504
818.612
462.259
519.151
565.045
603.618
636.862
665.799
691.031
712.981
731.963
748.223
761.959
773.343
782.536
789.709
795.069
798.918
801.759
804.41
810.679
820.021
462.259
519.151
565.045
603.618
636.862
665.799
691.031
712.981
731.963
748.223
761.959
773.343
782.536
789.709
795.069
798.918
801.759
804.41
810.679
820.021
462.247
519.14
565.045
603.63
636.883
665.821
691.049
712.988
731.95
748.179
761.871
773.196
782.313
789.389
794.632
798.34
801.015
803.47
809.504
818.612
462.22
519.12
565.05
603.658
636.916
665.84
691.031
712.907
731.775
747.875
761.4
772.518
781.385
788.17
793.077
796.408
798.665
800.668
806.205
814.894
462.173
519.09
565.058
603.678
636.897
665.723
690.756
712.404
730.972
746.694
759.765
770.357
778.633
784.769
788.982
791.587
793.107
794.399
799.275
807.62
462.093
519.036
564.995
603.472
636.383
664.733
689.125
709.976
727.607
742.276
754.205
763.592
770.633
775.536
778.552
780.039
780.578
781.13
785.611
794.448
461.915
518.783
564.389
602.109
633.892
660.805
683.51
702.49
718.135
730.776
740.7
748.168
753.432
756.755
758.451
758.949
758.938
759.564
764.969
776.397
461.111
516.727
560.05
594.648
622.847
646.012
665.018
680.503
692.966
702.812
710.376
715.951
719.814
722.255
723.628
724.43
725.47
728.13
736.854
753.857
457.807
507.964
545.006
573.499
596.26
614.815
630.064
642.618
652.921
661.309
668.055
673.399
677.584
680.884
683.66
686.451
690.148
696.3
709.447
732.359
449.797
488.335
516.013
537.736
555.737
570.958
583.913
594.963
604.368
612.324
619.026
624.666
629.451
633.633
637.546
641.688
646.874
654.488
668.336
690.693
299.43
312.919
326.126
339.066
351.683
363.958
375.902
387.534
398.891
410.021
420.952
431.721
442.377
452.981
463.609
474.35
485.309
496.591
508.458
520.077
300.33
315.878
331.627
347.306
362.73
377.791
392.435
406.639
420.402
433.758
446.779
459.488
471.925
484.143
496.211
508.217
520.266
532.473
545.048
557.628
459.258
510.461
548.514
578.018
601.823
621.485
637.93
651.79
663.535
673.504
681.952
689.176
695.483
701.226
706.856
713.005
720.63
731.213
747.533
770.599
468.002
489.66
513.44
537.026
559.432
580.182
599.039
615.932
630.908
644.085
655.623
665.726
674.656
682.768
690.563
698.802
708.699
722.2
743.086
773.275
474.293
499.725
524.854
548.299
569.72
589.087
606.424
621.783
635.245
646.917
656.928
665.436
672.651
678.865
684.519
690.312
697.408
707.739
725.299
752.377
476.238
504.752
533.391
560.284
584.76
606.625
625.852
642.495
656.665
668.507
678.182
685.871
691.788
696.206
699.516
702.33
705.664
711.225
722.8
742.473
476.593
505.718
535.566
564.224
590.81
614.932
636.406
655.173
671.254
684.728
695.707
704.33
710.767
715.245
718.087
719.804
721.256
723.892
731.195
744.775
476.672
505.827
535.876
565.014
592.361
617.482
640.147
660.241
677.731
692.639
705.021
714.963
722.584
728.052
731.627
733.735
735.115
737.017
742.689
753.26
476.708
505.834
535.865
565.068
592.591
618.008
641.087
661.711
679.836
695.471
708.65
719.438
727.925
734.249
738.631
741.449
743.372
745.543
751.079
760.789
476.728
505.836
535.834
565.019
592.564
618.047
641.242
662.035
680.389
696.313
709.841
721.033
729.973
736.789
741.689
745.031
747.458
750.061
755.908
765.634
476.738
505.839
535.819
564.989
592.528
618.021
641.24
662.075
680.493
696.504
710.146
721.479
730.587
737.598
742.718
746.3
748.978
751.829
757.907
767.776
476.738
505.839
535.819
564.989
592.528
618.021
641.24
662.075
680.493
696.504
710.146
721.479
730.587
737.598
742.718
746.3
748.978
751.829
757.907
767.776
476.728
505.836
535.834
565.019
592.564
618.047
641.242
662.035
680.389
696.313
709.841
721.033
729.973
736.789
741.689
745.031
747.458
750.061
755.908
765.634
476.708
505.834
535.865
565.068
592.591
618.008
641.087
661.711
679.836
695.471
708.65
719.438
727.925
734.249
738.631
741.449
743.372
745.543
751.079
760.789
476.672
505.827
535.876
565.014
592.361
617.482
640.147
660.241
677.731
692.639
705.021
714.963
722.584
728.052
731.628
733.735
735.115
737.017
742.689
753.26
476.593
505.718
535.566
564.224
590.81
614.932
636.406
655.173
671.254
684.728
695.707
704.33
710.767
715.245
718.087
719.804
721.256
723.892
731.195
744.776
476.238
504.752
533.391
560.284
584.76
606.625
625.852
642.495
656.665
668.507
678.182
685.872
691.788
696.206
699.516
702.33
705.665
711.225
722.8
742.473
474.293
499.725
524.854
548.299
569.72
589.087
606.425
621.783
635.245
646.917
656.928
665.436
672.651
678.865
684.519
690.312
697.408
707.739
725.299
752.376
468.002
489.66
513.44
537.026
559.432
580.183
599.039
615.933
630.909
644.085
655.623
665.726
674.657
682.768
690.563
698.803
708.699
722.201
743.086
773.275
459.258
510.46
548.513
578.018
601.823
621.485
637.93
651.79
663.535
673.505
681.953
689.178
695.484
701.227
706.858
713.007
720.632
731.216
747.536
770.601
300.33
315.878
331.626
347.304
362.728
377.789
392.433
406.637
420.4
433.756
446.777
459.486
471.923
484.141
496.209
508.215
520.265
532.472
545.047
557.628
300.51
316.612
333.329
350.313
367.292
384.077
400.535
416.577
432.144
447.207
461.759
475.813
489.399
502.568
515.409
528.082
540.678
553.307
566.134
579.056
462.613
519.388
563.875
599.705
629.268
653.994
674.809
692.404
707.33
720.05
730.966
740.452
748.886
756.679
764.297
772.32
781.672
793.663
810.246
832.229
475.297
501.456
527.352
551.669
574.126
594.732
613.542
630.629
646.102
660.097
672.783
684.357
695.092
705.361
715.699
726.881
740.081
757.063
780.561
812.136
503.917
512.285
523.536
536.21
549.509
563.015
576.421
589.469
601.958
613.756
624.802
635.12
644.822
654.151
663.54
673.714
685.852
701.816
724.646
756.443
509.139
520.657
532.777
544.863
556.672
568.136
579.183
589.701
599.569
608.687
616.99
624.466
631.179
637.305
643.191
649.458
657.159
668.015
685.014
710.408
510.491
524.084
538.473
552.711
566.358
579.246
591.26
602.283
612.206
620.942
628.435
634.671
639.698
643.651
646.811
649.692
653.191
658.801
669.285
686.737
510.734
524.724
539.854
555.168
570.124
584.439
597.898
610.301
621.472
631.266
639.575
646.338
651.552
655.294
657.772
659.395
660.914
663.599
669.957
681.768
510.789
524.803
540.049
555.641
571.048
585.971
600.169
613.413
625.491
636.219
645.448
653.074
659.044
663.386
666.242
667.942
669.125
670.9
675.58
684.652
510.813
524.811
540.045
555.67
571.179
586.279
600.735
614.316
626.806
638.013
647.774
655.966
662.514
667.417
670.783
672.895
674.331
676.103
680.411
688.546
510.823
524.813
540.031
555.648
571.169
586.308
600.83
614.51
627.135
638.513
648.479
656.908
663.718
668.899
672.545
674.923
676.582
678.497
682.819
690.746
510.823
524.813
540.031
555.648
571.169
586.308
600.83
614.51
627.135
638.513
648.479
656.908
663.718
668.899
672.545
674.923
676.582
678.497
682.819
690.746
510.813
524.811
540.045
555.67
571.179
586.279
600.735
614.316
626.806
638.013
647.774
655.966
662.514
667.417
670.783
672.896
674.331
676.103
680.411
688.546
510.789
524.803
540.049
555.641
571.048
585.971
600.169
613.413
625.491
636.219
645.448
653.074
659.044
663.386
666.242
667.942
669.125
670.9
675.58
684.652
510.734
524.724
539.854
555.168
570.124
584.439
597.898
610.301
621.472
631.266
639.575
646.338
651.552
655.294
657.772
659.395
660.914
663.599
669.957
681.768
510.491
524.084
538.473
552.711
566.358
579.246
591.26
602.284
612.207
620.942
628.435
634.672
639.698
643.651
646.811
649.692
653.191
658.801
669.285
686.737
509.139
520.657
532.777
544.863
556.672
568.136
579.183
589.701
599.569
608.687
616.99
624.466
631.179
637.305
643.191
649.458
657.159
668.014
685.013
710.408
503.917
512.285
523.536
536.21
549.509
563.015
576.421
589.469
601.958
613.756
624.802
635.12
644.822
654.15
663.539
673.713
685.852
701.815
724.646
756.442
475.297
501.456
527.352
551.669
574.126
594.733
613.542
630.63
646.102
660.097
672.783
684.358
695.092
705.362
715.7
726.882
740.081
757.064
780.561
812.136
462.613
519.387
563.874
599.704
629.268
653.994
674.81
692.404
707.331
720.051
730.967
740.453
748.888
756.681
764.299
772.322
781.673
793.665
810.248
832.231
300.51
316.611
333.328
350.311
367.29
384.075
400.533
416.575
432.142
447.205
461.757
475.811
489.398
502.567
515.408
528.081
540.677
553.306
566.134
579.055
300.525
316.713
333.65
350.991
368.456
385.844
403.006
419.834
436.246
452.191
467.64
482.584
497.038
511.032
524.641
537.987
551.143
564.209
577.318
590.493
463.389
521.451
568.293
607.341
640.606
669.222
693.915
715.241
733.666
749.607
763.455
775.59
786.413
796.363
805.923
815.673
826.463
839.413
855.956
876.777
477.419
506.95
536.755
565.032
591.177
615.061
636.712
656.241
673.82
689.664
704.023
717.184
729.493
741.36
753.355
766.256
781.144
799.528
823.402
853.948
510.137
522.434
535.424
548.511
561.488
574.327
586.992
599.407
611.493
623.194
634.499
645.454
656.199
667.017
678.359
690.934
705.832
724.672
749.707
782.546
537.066
538.862
542.537
547.543
553.455
560.026
567.076
574.435
581.947
589.48
596.945
604.319
611.656
619.131
627.098
636.17
647.353
662.195
682.974
711.528
541.436
546.271
551.333
556.544
561.825
567.141
572.457
577.708
582.81
587.677
592.244
596.481
600.421
604.196
608.09
612.62
618.664
627.611
641.61
662.523
542.429
548.79
555.514
562.312
568.977
575.4
581.5
587.189
592.37
596.952
600.857
604.042
606.512
608.358
609.799
611.261
613.491
617.698
625.838
639.64
542.601
549.255
556.501
564.043
571.611
579.023
586.131
592.787
598.844
604.164
608.625
612.14
614.668
616.245
617.025
617.349
617.844
619.558
624.268
633.511
542.637
549.313
556.647
564.382
572.258
580.083
587.692
594.919
601.591
607.542
612.62
616.702
619.709
621.633
622.576
622.812
622.886
623.729
626.984
634.025
542.649
549.318
556.653
564.419
572.365
580.305
588.077
595.512
602.435
608.671
614.057
618.457
621.775
623.98
625.149
625.524
625.605
626.266
629.082
635.336
542.649
549.318
556.653
564.419
572.365
580.305
588.077
595.512
602.435
608.671
614.057
618.457
621.775
623.98
625.149
625.524
625.605
626.266
629.082
635.336
542.637
549.313
556.647
564.382
572.258
580.083
587.692
594.919
601.591
607.542
612.62
616.702
619.709
621.633
622.576
622.812
622.886
623.729
626.984
634.025
542.601
549.255
556.501
564.043
571.611
579.023
586.131
592.787
598.845
604.164
608.625
612.14
614.668
616.245
617.026
617.349
617.844
619.558
624.268
633.511
542.429
548.79
555.514
562.312
568.977
575.4
581.5
587.189
592.37
596.952
600.857
604.042
606.512
608.358
609.799
611.261
613.491
617.698
625.838
639.64
541.436
546.271
551.333
556.544
561.825
567.141
572.457
577.708
582.81
587.677
592.244
596.481
600.421
604.196
608.09
612.62
618.664
627.611
641.61
662.523
537.066
538.862
542.537
547.543
553.455
560.026
567.076
574.435
581.947
589.48
596.945
604.319
611.656
619.131
627.097
636.17
647.353
662.195
682.973
711.528
510.137
522.434
535.424
548.511
561.488
574.327
586.992
599.407
611.493
623.194
634.499
645.453
656.198
667.017
678.359
690.933
705.832
724.672
749.706
782.546
477.419
506.95
536.755
565.032
591.177
615.061
636.712
656.241
673.82
689.664
704.023
717.184
729.493
741.36
753.355
766.256
781.145
799.528
823.402
853.947
463.389
521.45
568.292
607.34
640.606
669.222
693.915
715.241
733.666
749.608
763.456
775.592
786.414
796.365
805.925
815.675
826.465
839.415
855.958
876.78
300.525
316.713
333.649
350.99
368.454
385.842
403.004
419.832
436.244
452.189
467.638
482.583
497.037
511.031
524.64
537.986
551.142
564.208
577.318
590.493
300.521
316.711
333.685
351.12
368.745
386.371
403.853
421.079
437.958
454.422
470.425
485.942
500.965
515.505
529.59
543.267
556.65
569.886
583.08
596.309
463.523
521.644
568.833
608.635
643.028
673.086
699.485
722.724
743.21
761.305
777.348
791.679
804.662
816.708
828.302
840.043
852.617
866.909
884.044
904.694
477.772
507.947
539.032
569.18
597.592
623.956
648.17
670.257
690.332
708.58
725.239
740.601
755.018
768.93
782.899
797.629
814.096
833.57
857.587
887.162
511.649
526.257
541.844
557.511
572.882
587.86
602.407
616.484
630.068
643.165
655.831
668.179
680.405
692.808
705.844
720.216
736.907
757.284
783.076
815.59
542.343
547.833
553.598
559.609
565.837
572.298
579.01
585.957
593.11
600.439
607.939
615.649
623.679
632.254
641.754
652.779
666.241
683.469
706.223
735.992
567.05
566.144
566.438
567.639
569.463
571.736
574.361
577.27
580.403
583.719
587.198
590.864
594.798
599.176
604.315
610.739
619.27
631.138
648.033
671.509
570.713
572.519
574.298
576.091
577.866
579.603
581.293
582.924
584.473
585.912
587.228
588.43
589.58
590.816
592.402
594.787
598.697
605.235
615.972
632.429
571.484
574.49
577.578
580.626
583.512
586.16
588.527
590.576
592.27
593.569
594.443
594.883
594.921
594.657
594.303
594.239
595.097
597.859
603.974
614.874
571.613
574.852
578.345
581.959
585.522
588.904
592.013
594.768
597.093
598.911
600.157
600.786
600.795
600.239
599.282
598.241
597.673
598.462
601.952
609.486
571.634
574.898
578.468
582.23
586.014
589.68
593.122
596.243
598.946
601.135
602.72
603.633
603.844
603.382
602.376
601.107
600.086
600.142
602.558
608.618
571.634
574.898
578.468
582.23
586.014
589.68
593.122
596.243
598.946
601.135
602.72
603.633
603.844
603.382
602.376
601.107
600.086
600.142
602.558
608.618
571.613
574.852
578.345
581.959
585.522
588.904
592.013
594.768
597.093
598.911
600.157
600.786
600.795
600.239
599.282
598.241
597.673
598.462
601.952
609.486
571.484
574.49
577.578
580.626
583.512
586.16
588.527
590.576
592.27
593.569
594.444
594.884
594.921
594.658
594.303
594.239
595.097
597.859
603.974
614.874
570.713
572.519
574.298
576.091
577.866
579.603
581.293
582.924
584.473
585.913
587.228
588.43
589.58
590.816
592.402
594.787
598.697
605.235
615.972
632.429
567.05
566.144
566.438
567.639
569.463
571.736
574.361
577.27
580.403
583.719
587.198
590.864
594.798
599.176
604.315
610.739
619.27
631.138
648.032
671.509
542.343
547.833
553.598
559.609
565.836
572.298
579.009
585.957
593.11
600.439
607.939
615.649
623.679
632.254
641.754
652.778
666.24
683.469
706.222
735.991
511.649
526.256
541.843
557.51
572.881
587.86
602.407
616.484
630.067
643.165
655.83
668.178
680.404
692.808
705.843
720.215
736.907
757.283
783.075
815.589
477.772
507.946
539.032
569.18
597.592
623.956
648.17
670.257
690.332
708.58
725.239
740.601
755.018
768.93
782.899
797.629
814.095
833.569
857.587
887.162
463.523
521.643
568.832
608.634
643.027
673.086
699.485
722.724
743.211
761.306
777.349
791.68
804.664
816.709
828.303
840.044
852.619
866.91
884.046
904.695
300.521
316.71
333.684
351.118
368.744
386.369
403.851
421.077
437.956
454.42
470.423
485.94
500.963
515.504
529.589
543.266
556.649
569.885
583.08
596.309
300.518
316.704
333.683
351.139
368.807
386.498
404.073
421.421
438.452
455.099
471.312
487.062
502.336
517.136
531.482
545.407
558.961
572.305
585.542
598.765
463.573
521.661
568.871
608.845
643.595
674.197
701.321
725.456
746.996
766.28
783.622
799.34
813.768
827.288
840.347
853.49
867.389
882.752
900.497
921.327
477.834
508.036
539.338
570.003
599.231
626.676
652.195
675.767
697.467
717.437
735.881
753.058
769.292
784.992
800.676
817.009
834.823
855.185
879.34
908.25
511.896
526.929
543.327
560.19
577.049
593.708
610.048
625.978
641.435
656.404
670.93
685.122
699.177
713.398
728.229
744.283
762.43
783.826
809.861
841.703
543.486
550.71
558.424
566.4
574.501
582.697
590.992
599.389
607.887
616.5
625.267
634.276
643.678
653.715
664.765
677.404
692.452
711.036
734.567
764.337
571.548
573.936
576.323
578.799
581.375
584.074
586.934
589.986
593.258
596.779
600.592
604.775
609.459
614.862
621.323
629.355
639.707
653.438
671.918
696.486
593.979
591.75
590.378
589.657
589.375
589.389
589.62
590.025
590.58
591.274
592.122
593.175
594.537
596.388
599.025
602.906
608.716
617.436
630.368
648.85
597.107
597.262
597.3
597.285
597.207
597.048
596.798
596.454
596.007
595.455
594.805
594.093
593.401
592.88
592.785
593.525
595.725
600.295
608.47
621.566
597.728
598.868
599.978
600.988
601.815
602.398
602.7
602.698
602.373
601.708
600.702
599.374
597.787
596.065
594.437
593.272
593.149
594.927
599.791
609.042
597.825
599.16
600.594
602.033
603.351
604.442
605.231
605.662
605.687
605.266
604.377
603.022
601.243
599.148
596.943
594.976
593.8
594.244
597.468
604.764
597.825
599.16
600.594
602.033
603.351
604.442
605.231
605.662
605.687
605.267
604.377
603.022
601.243
599.148
596.943
594.976
593.8
594.244
597.468
604.764
597.728
598.868
599.978
600.988
601.815
602.398
602.7
602.698
602.373
601.708
600.702
599.374
597.787
596.065
594.437
593.272
593.149
594.927
599.791
609.042
597.107
597.262
597.3
597.285
597.207
597.048
596.799
596.454
596.007
595.455
594.805
594.093
593.401
592.88
592.785
593.525
595.725
600.295
608.469
621.565
593.979
591.75
590.378
589.657
589.375
589.389
589.62
590.025
590.58
591.274
592.122
593.175
594.537
596.388
599.025
602.906
608.716
617.436
630.368
648.85
571.548
573.936
576.323
578.798
581.375
584.074
586.933
589.986
593.258
596.779
600.592
604.775
609.459
614.862
621.323
629.355
639.707
653.437
671.918
696.485
543.486
550.71
558.424
566.4
574.501
582.696
590.992
599.389
607.887
616.499
625.267
634.275
643.677
653.715
664.764
677.403
692.452
711.035
734.566
764.336
511.896
526.929
543.327
560.19
577.049
593.707
610.048
625.977
641.434
656.404
670.929
685.122
699.176
713.397
728.228
744.282
762.429
783.825
809.86
841.702
477.834
508.036
539.338
570.002
599.231
626.676
652.195
675.768
697.467
717.437
735.881
753.058
769.292
784.992
800.676
817.008
834.823
855.185
879.339
908.25
463.573
521.66
568.87
608.845
643.595
674.197
701.321
725.457
746.997
766.28
783.623
799.341
813.769
827.289
840.348
853.492
867.39
882.753
900.499
921.328
300.518
316.703
333.682
351.138
368.805
386.496
404.071
421.419
438.45
455.097
471.311
487.061
502.335
517.135
531.481
545.406
558.96
572.305
585.542
598.765
300.517
316.7
333.682
351.149
368.838
386.561
404.182
421.592
438.703
455.447
471.774
487.651
503.062
518.002
532.485
546.535
560.192
573.508
586.663
599.756
463.599
521.67
568.865
608.873
643.731
674.526
701.932
726.449
748.475
768.354
786.401
802.928
818.263
832.768
846.865
861.054
875.937
892.231
910.628
931.855
477.857
508.029
539.327
570.084
599.535
627.34
653.359
677.572
700.048
720.922
740.384
758.676
776.101
793.035
809.95
827.441
846.255
867.298
891.605
920.142
511.939
526.991
543.517
560.691
578.057
595.407
612.607
629.547
646.146
662.368
678.237
693.841
709.354
725.049
741.324
758.738
778.039
800.175
826.325
857.61
543.667
551.208
559.505
568.33
577.49
586.894
596.498
606.27
616.187
626.248
636.487
646.986
657.895
669.453
682.019
696.105
712.414
731.92
755.805
785.286
572.459
576.234
580.183
584.244
588.352
592.494
596.699
601.01
605.475
610.151
615.112
620.469
626.379
633.075
640.89
650.307
662.009
676.912
696.178
721.059
597.875
598.553
599.127
599.7
600.301
600.946
601.662
602.483
603.442
604.58
605.957
607.661
609.829
612.67
616.494
621.751
629.076
639.342
653.677
673.344
618.357
615.379
613.088
611.314
609.881
608.661
607.579
606.593
605.685
604.855
604.127
603.563
603.274
603.444
604.355
606.429
610.273
616.73
626.908
642.079
621.085
620.217
619.216
618.133
616.96
615.673
614.259
612.71
611.027
609.217
607.308
605.357
603.469
601.817
600.673
600.445
601.728
605.359
612.443
624.278
621.593
621.537
621.383
621.062
620.507
619.669
618.52
617.051
615.264
613.174
610.814
608.246
605.579
602.988
600.746
599.261
599.13
601.191
606.56
616.558
621.593
621.537
621.383
621.062
620.507
619.669
618.52
617.051
615.264
613.174
610.814
608.246
605.579
602.988
600.746
599.261
599.13
601.191
606.56
616.558
621.085
620.217
619.216
618.133
616.96
615.673
614.259
612.71
611.027
609.217
607.308
605.357
603.469
601.817
600.673
600.445
601.728
605.359
612.443
624.278
618.357
615.379
613.088
611.314
609.881
608.661
607.579
606.593
605.685
604.855
604.127
603.563
603.274
603.444
604.355
606.429
610.273
616.73
626.908
642.079
597.875
598.553
599.126
599.7
600.301
600.946
601.662
602.483
603.442
604.58
605.957
607.661
609.829
612.67
616.494
621.751
629.075
639.341
653.676
673.343
572.459
576.234
580.183
584.244
588.352
592.494
596.699
601.01
605.475
610.151
615.112
620.469
626.379
633.074
640.89
650.307
662.009
676.912
696.177
721.059
543.667
551.208
559.505
568.329
577.489
586.893
596.498
606.27
616.187
626.248
636.486
646.985
657.895
669.453
682.018
696.104
712.413
731.919
755.804
785.285
511.939
526.991
543.517
560.691
578.056
595.406
612.607
629.547
646.146
662.368
678.236
693.841
709.353
725.048
741.324
758.737
778.038
800.174
826.324
857.609
477.857
508.029
539.327
570.084
599.535
627.34
653.359
677.572
700.048
720.922
740.384
758.676
776.101
793.035
809.95
827.441
846.254
867.297
891.605
920.141
463.599
521.67
568.864
608.872
643.731
674.526
701.932
726.449
748.476
768.355
786.402
802.929
818.264
832.769
846.866
861.055
875.938
892.233
910.629
931.856
300.517
316.699
333.681
351.148
368.836
386.559
404.18
421.59
438.701
455.445
471.772
487.65
503.06
518.001
532.484
546.534
560.191
573.508
586.663
599.757
300.515
316.699
333.685
351.163
368.868
386.615
404.267
421.716
438.873
455.671
472.059
488.001
503.479
518.486
533.03
547.129
560.816
574.133
587.148
600.037
463.61
521.683
568.883
608.924
643.862
674.789
702.388
727.162
749.518
769.804
788.34
805.438
821.423
836.648
851.515
866.49
882.124
899.056
917.993
939.605
477.868
508.026
539.31
570.087
599.616
627.569
653.811
678.329
701.198
722.557
742.595
761.548
779.708
797.429
815.15
833.409
852.865
874.313
898.674
926.928
511.951
526.984
543.506
560.736
578.243
595.83
613.369
630.754
647.905
664.786
681.41
697.856
714.279
730.924
748.149
766.445
786.465
809.036
835.168
865.994
543.693
551.253
559.646
568.693
578.211
588.103
598.318
608.814
619.558
630.536
641.769
653.326
665.339
678.023
691.7
706.829
724.039
744.155
768.208
797.44
572.597
576.628
581.037
585.758
590.683
595.755
600.968
606.34
611.901
617.699
623.803
630.32
637.405
645.284
654.281
664.844
677.587
693.324
713.104
738.21
598.626
600.46
602.333
604.225
606.103
607.956
609.804
611.687
613.654
615.766
618.105
620.783
623.96
627.862
632.805
639.234
647.75
659.164
674.529
695.151
621.787
621.393
620.869
620.305
619.724
619.133
618.545
617.984
617.481
617.08
616.845
616.873
617.313
618.378
620.379
623.752
629.101
637.24
649.232
666.408
640.632
637.158
634.243
631.721
629.431
627.262
625.15
623.068
621.013
619.007
617.1
615.382
613.994
613.149
613.162
614.474
617.703
623.681
633.494
648.507
642.996
641.269
639.298
637.136
634.798
632.294
629.643
626.871
624.014
621.12
618.256
615.526
613.078
611.137
610.022
610.188
612.263
617.097
625.798
639.753
642.996
641.269
639.298
637.136
634.798
632.294
629.643
626.871
624.014
621.12
618.256
615.526
613.078
611.137
610.022
610.188
612.263
617.097
625.798
639.753
640.632
637.158
634.243
631.72
629.431
627.262
625.15
623.068
621.013
619.007
617.1
615.382
613.994
613.149
613.162
614.474
617.703
623.681
633.494
648.507
621.787
621.393
620.869
620.305
619.724
619.132
618.545
617.984
617.481
617.08
616.845
616.873
617.313
618.378
620.379
623.752
629.101
637.24
649.232
666.408
598.626
600.459
602.332
604.225
606.103
607.956
609.804
611.687
613.654
615.766
618.105
620.783
623.96
627.861
632.805
639.233
647.75
659.164
674.529
695.151
572.597
576.628
581.037
585.758
590.682
595.755
600.968
606.339
611.901
617.699
623.803
630.32
637.405
645.284
654.28
664.843
677.587
693.324
713.103
738.209
543.693
551.252
559.646
568.693
578.21
588.102
598.318
608.814
619.557
630.535
641.769
653.326
665.339
678.022
691.699
706.828
724.038
744.154
768.207
797.439
511.951
526.984
543.506
560.735
578.242
595.829
613.369
630.754
647.905
664.785
681.409
697.856
714.278
730.924
748.148
766.444
786.464
809.035
835.167
865.992
477.868
508.026
539.31
570.087
599.616
627.569
653.811
678.329
701.198
722.557
742.594
761.548
779.707
797.429
815.15
833.409
852.865
874.312
898.673
926.927
463.61
521.682
568.882
608.923
643.862
674.789
702.388
727.162
749.518
769.805
788.341
805.439
821.424
836.649
851.516
866.492
882.126
899.057
917.995
939.606
300.515
316.698
333.684
351.161
368.866
386.613
404.265
421.714
438.872
455.67
472.057
488
503.478
518.485
533.029
547.129
560.816
574.133
587.148
600.037
300.514
316.699
333.691
351.179
368.901
386.671
404.352
421.836
439.034
455.878
472.313
488.305
503.831
518.88
533.455
547.569
561.244
574.512
587.413
600.016
463.609
521.692
568.916
609.007
644.03
675.084
702.856
727.854
750.488
771.112
790.05
807.613
824.127
839.936
855.427
871.04
887.279
904.719
924.018
945.961
477.869
508.027
539.317
570.122
599.713
627.768
654.158
678.875
701.998
723.67
744.081
763.467
782.111
800.353
818.607
837.368
857.23
878.898
903.2
931.183
511.951
526.973
543.49
560.739
578.303
595.992
613.685
631.28
648.703
665.92
682.944
699.85
716.782
733.967
751.733
770.526
790.93
813.678
839.687
870.157
543.694
551.241
559.64
568.734
578.353
588.409
598.853
609.648
620.759
632.173
643.907
656.022
668.639
681.956
696.272
712.008
729.737
750.208
774.391
803.593
572.611
576.661
581.154
586.047
591.237
596.662
602.305
608.177
614.301
620.715
627.482
634.704
642.531
651.181
660.969
672.325
685.838
702.28