/*--------------------------------*- C++ -*----------------------------------*\
  =========                 |
  \\      /  F ield         | OpenFOAM: The Open Source CFD Toolbox
   \\    /   O peration     | Website:  https://openfoam.org
    \\  /    A nd           | Version:  10
     \\/     M anipulation  |
\*---------------------------------------------------------------------------*/
FoamFile
{
    format      ascii;
    class       volScalarField;
    location    "150";
    object      nut;
}
// * * * * * * * * * * * * * * * * * * * * * * * * * * * * * * * * * * * * * //

dimensions      [0 2 -1 0 0 0 0];

internalField   nonuniform List<scalar> 
112000
(
0.00480522
0.00485993
0.00491626
0.0049736
0.00503102
0.00508821
0.00514517
0.005202
0.0052588
0.00531574
0.00537301
0.00543086
0.00548958
0.00554953
0.00561111
0.00567479
0.00574111
0.00581055
0.00588531
0.00594931
0.0048582
0.00496801
0.00507415
0.00517688
0.00527599
0.00537152
0.00546375
0.00555298
0.00563949
0.00572357
0.00580554
0.00588578
0.0059647
0.00604276
0.00612053
0.00619869
0.00627818
0.00636029
0.00644993
0.00653411
0.00486494
0.00499012
0.00511458
0.00523641
0.00535446
0.00546818
0.00557746
0.00568239
0.00578318
0.00588014
0.00597361
0.006064
0.00615176
0.00623741
0.00632153
0.00640481
0.0064882
0.00657296
0.00666433
0.0067485
0.00486633
0.00499569
0.0051273
0.00525849
0.00538736
0.00551274
0.00563395
0.00575064
0.0058627
0.00597018
0.0060733
0.00617234
0.00626771
0.00635986
0.00644936
0.00653684
0.00662314
0.00670929
0.00680022
0.0068801
0.00486644
0.0049964
0.00512955
0.0052632
0.00539536
0.00552477
0.00565062
0.00577242
0.00588993
0.00600306
0.0061119
0.00621666
0.00631766
0.00641529
0.00651003
0.00660245
0.00669329
0.00678339
0.00687736
0.00695773
0.00486642
0.00499633
0.00512968
0.00526388
0.00539704
0.00552794
0.00565581
0.00578014
0.00590062
0.00601711
0.00612962
0.00623826
0.00634327
0.00644499
0.00654383
0.00664031
0.0067351
0.00682895
0.00692637
0.00700878
0.0048664
0.00499625
0.00512955
0.00526379
0.00539707
0.00552822
0.00565649
0.0057814
0.00590265
0.00602012
0.00613381
0.00624387
0.00635051
0.00645408
0.00655499
0.00665376
0.00675108
0.00684767
0.00694809
0.00703328
0.00486639
0.0049962
0.00512945
0.00526365
0.00539692
0.00552808
0.00565643
0.00578148
0.00590297
0.00602077
0.00613492
0.00624556
0.00635292
0.00645733
0.00655923
0.00665914
0.00675776
0.00685584
0.006958
0.00704496
0.00486639
0.00499617
0.00512939
0.00526356
0.0053968
0.00552794
0.00565626
0.00578131
0.00590281
0.00602065
0.00613488
0.00624563
0.00635315
0.0064578
0.00656
0.00666031
0.00675944
0.00685818
0.00696119
0.00704915
0.00486639
0.00499616
0.00512937
0.00526352
0.00539675
0.00552787
0.00565617
0.0057812
0.00590269
0.00602054
0.00613477
0.00624554
0.00635311
0.00645783
0.00656013
0.00666057
0.00675988
0.00685884
0.00696217
0.00705052
0.00486639
0.00499616
0.00512937
0.00526352
0.00539675
0.00552787
0.00565617
0.0057812
0.00590269
0.00602054
0.00613477
0.00624554
0.00635311
0.00645783
0.00656013
0.00666057
0.00675988
0.00685884
0.00696217
0.00705052
0.00486639
0.00499617
0.00512939
0.00526356
0.0053968
0.00552794
0.00565626
0.00578131
0.00590281
0.00602065
0.00613488
0.00624563
0.00635315
0.0064578
0.00656
0.00666031
0.00675944
0.00685818
0.00696119
0.00704915
0.00486639
0.0049962
0.00512945
0.00526365
0.00539692
0.00552808
0.00565643
0.00578148
0.00590297
0.00602077
0.00613492
0.00624556
0.00635292
0.00645733
0.00655923
0.00665914
0.00675776
0.00685584
0.006958
0.00704497
0.0048664
0.00499625
0.00512955
0.00526379
0.00539707
0.00552822
0.00565649
0.0057814
0.00590265
0.00602012
0.00613381
0.00624387
0.00635051
0.00645408
0.00655499
0.00665377
0.00675108
0.00684767
0.00694809
0.00703328
0.00486642
0.00499633
0.00512968
0.00526388
0.00539704
0.00552794
0.00565581
0.00578014
0.00590062
0.00601711
0.00612962
0.00623826
0.00634327
0.00644499
0.00654383
0.00664031
0.0067351
0.00682895
0.00692638
0.00700879
0.00486644
0.0049964
0.00512955
0.0052632
0.00539536
0.00552477
0.00565062
0.00577242
0.00588993
0.00600306
0.0061119
0.00621666
0.00631766
0.00641529
0.00651003
0.00660245
0.00669329
0.00678339
0.00687736
0.00695773
0.00486633
0.00499569
0.0051273
0.00525849
0.00538736
0.00551274
0.00563395
0.00575064
0.0058627
0.00597018
0.0060733
0.00617234
0.00626771
0.00635986
0.00644936
0.00653684
0.00662314
0.00670929
0.00680023
0.0068801
0.00486494
0.00499012
0.00511458
0.00523641
0.00535446
0.00546818
0.00557746
0.00568239
0.00578318
0.00588014
0.00597361
0.006064
0.00615176
0.00623741
0.00632153
0.00640481
0.0064882
0.00657296
0.00666433
0.0067485
0.0048582
0.00496801
0.00507415
0.00517688
0.00527599
0.00537153
0.00546376
0.00555298
0.00563949
0.00572357
0.00580555
0.00588578
0.0059647
0.00604276
0.00612053
0.0061987
0.00627819
0.0063603
0.00644994
0.00653412
0.00480522
0.00485993
0.00491626
0.00497359
0.00503102
0.00508821
0.00514517
0.00520199
0.0052588
0.00531574
0.00537301
0.00543086
0.00548958
0.00554953
0.00561111
0.00567479
0.00574111
0.00581055
0.00588531
0.0059493
0.00485756
0.00496577
0.00506949
0.00516908
0.00526437
0.00535546
0.00544263
0.0055262
0.00560659
0.00568428
0.00575955
0.00583275
0.0059043
0.00597465
0.00604433
0.00611395
0.00618417
0.00625564
0.00632995
0.00640186
0.0461831
0.0415807
0.0384465
0.036099
0.0342454
0.0327246
0.0314407
0.0303338
0.0293605
0.0284893
0.0277042
0.026994
0.0263519
0.0257749
0.025264
0.0248261
0.0244773
0.0242488
0.0242231
0.0244623
0.0510064
0.0486507
0.0466353
0.0448462
0.0432483
0.0418119
0.0405122
0.0393298
0.0382501
0.0372615
0.0363561
0.035529
0.0347787
0.0341082
0.0335258
0.0330485
0.0327087
0.0325649
0.0327609
0.0334096
0.0513738
0.0495133
0.0479686
0.0465776
0.0452953
0.0440993
0.0429761
0.0419179
0.0409202
0.0399806
0.0390984
0.0382745
0.0375122
0.0368179
0.0362032
0.0356886
0.0353108
0.035135
0.0353248
0.036012
0.0514231
0.0496556
0.0482505
0.0470255
0.0459135
0.0448782
0.0438982
0.0429617
0.0420627
0.0411991
0.0403709
0.0395806
0.0388326
0.0381341
0.0374971
0.0369412
0.0365004
0.0362348
0.0363016
0.0368162
0.051432
0.0496756
0.0482989
0.0471219
0.0460734
0.0451115
0.0442103
0.0433538
0.0425326
0.0417414
0.0409783
0.0402439
0.0395412
0.0388764
0.0382599
0.0377091
0.0372545
0.0369497
0.0369416
0.0373223
0.051435
0.0496784
0.0483048
0.0471384
0.0461085
0.0451727
0.0443039
0.043485
0.0427051
0.0419575
0.0412388
0.0405482
0.0398875
0.0392615
0.0386793
0.0381568
0.0377221
0.0374244
0.0374044
0.0377364
0.0514365
0.0496791
0.0483041
0.0471383
0.0461118
0.0451825
0.0443235
0.0435174
0.0427534
0.0420246
0.0413271
0.0406598
0.040024
0.0394239
0.0388679
0.0383712
0.0379609
0.0376844
0.0376799
0.0380124
0.0514374
0.0496795
0.0483033
0.0471366
0.0461102
0.0451822
0.0443255
0.0435231
0.0427642
0.042042
0.0413528
0.0406953
0.0400708
0.0394834
0.0389415
0.0384601
0.038066
0.0378062
0.0378185
0.0381639
0.0514378
0.0496798
0.0483029
0.0471356
0.046109
0.045181
0.0443247
0.0435231
0.0427654
0.0420451
0.0413583
0.0407039
0.0400832
0.0395005
0.038964
0.038489
0.0381021
0.0378504
0.0378719
0.038226
0.0514378
0.0496798
0.0483029
0.0471356
0.046109
0.045181
0.0443247
0.0435231
0.0427654
0.0420451
0.0413583
0.0407039
0.0400832
0.0395005
0.038964
0.038489
0.0381021
0.0378504
0.0378719
0.038226
0.0514374
0.0496795
0.0483033
0.0471366
0.0461102
0.0451822
0.0443255
0.0435231
0.0427642
0.042042
0.0413528
0.0406953
0.0400708
0.0394834
0.0389415
0.0384601
0.038066
0.0378062
0.0378185
0.0381639
0.0514365
0.0496791
0.0483041
0.0471383
0.0461118
0.0451825
0.0443235
0.0435174
0.0427534
0.0420246
0.0413271
0.0406598
0.040024
0.0394239
0.0388679
0.0383712
0.0379609
0.0376844
0.0376799
0.0380124
0.051435
0.0496784
0.0483048
0.0471384
0.0461085
0.0451727
0.0443039
0.043485
0.0427051
0.0419575
0.0412388
0.0405482
0.0398875
0.0392615
0.0386793
0.0381568
0.0377221
0.0374244
0.0374044
0.0377364
0.051432
0.0496756
0.0482989
0.0471219
0.0460734
0.0451115
0.0442103
0.0433538
0.0425326
0.0417414
0.0409783
0.0402439
0.0395412
0.0388764
0.0382599
0.0377091
0.0372545
0.0369497
0.0369416
0.0373223
0.0514231
0.0496556
0.0482505
0.0470255
0.0459135
0.0448782
0.0438982
0.0429617
0.0420627
0.0411991
0.040371
0.0395806
0.0388326
0.0381341
0.0374971
0.0369412
0.0365004
0.0362348
0.0363016
0.0368162
0.0513738
0.0495133
0.0479686
0.0465776
0.0452953
0.0440993
0.0429761
0.0419179
0.0409202
0.0399806
0.0390984
0.0382746
0.0375122
0.0368179
0.0362032
0.0356887
0.0353108
0.035135
0.0353248
0.0360121
0.0510064
0.0486507
0.0466353
0.0448462
0.0432483
0.0418119
0.0405122
0.0393298
0.0382501
0.0372615
0.0363561
0.035529
0.0347787
0.0341082
0.0335258
0.0330486
0.0327088
0.0325649
0.0327609
0.0334096
0.0461831
0.0415807
0.0384464
0.036099
0.0342454
0.0327247
0.0314408
0.0303339
0.0293606
0.0284894
0.0277043
0.0269941
0.0263521
0.025775
0.0252641
0.0248263
0.0244775
0.0242489
0.0242232
0.0244625
0.00485756
0.00496576
0.00506948
0.00516907
0.00526437
0.00535546
0.00544263
0.00552619
0.00560658
0.00568427
0.00575954
0.00583275
0.00590429
0.00597464
0.00604432
0.00611394
0.00618417
0.00625564
0.00632995
0.00640186
0.00486484
0.00498919
0.00511205
0.0052315
0.0053464
0.00545627
0.00556102
0.00566076
0.00575577
0.00584648
0.00593358
0.00601739
0.00609828
0.00617672
0.00625323
0.00632843
0.00640301
0.0064777
0.00655374
0.00662895
0.0510524
0.0487272
0.046731
0.0449537
0.0433611
0.0419249
0.0406207
0.0394294
0.0383358
0.0373234
0.0363706
0.0354767
0.0346421
0.0338692
0.0331632
0.032533
0.031996
0.0315822
0.0313501
0.0313246
0.0586926
0.0590054
0.0590271
0.058759
0.0582656
0.0576118
0.0568493
0.0560186
0.055151
0.0542663
0.0533809
0.0525129
0.0516793
0.0508978
0.0501897
0.0495848
0.0491277
0.0488877
0.0489879
0.0494819
0.0594677
0.0605593
0.0612965
0.0616774
0.0617607
0.061611
0.0612842
0.0608267
0.0602769
0.0596664
0.0590221
0.0583676
0.057726
0.0571223
0.056587
0.0561621
0.0559107
0.0559299
0.0563927
0.0573914
0.0596243
0.0609563
0.0619561
0.0625891
0.0628953
0.0629333
0.0627589
0.0624213
0.0619627
0.061419
0.0608208
0.0601949
0.0595669
0.0589635
0.058417
0.0579711
0.0576915
0.0576813
0.0581319
0.0591602
0.0596543
0.061042
0.0621365
0.0628932
0.0633353
0.0635076
0.0634569
0.063227
0.0628567
0.0623801
0.0618272
0.0612247
0.0605976
0.0599719
0.0593782
0.0588569
0.0584685
0.058308
0.0585605
0.0593394
0.0596607
0.0610552
0.0621709
0.062968
0.0634668
0.0637077
0.0637329
0.0635814
0.0632884
0.0628844
0.0623965
0.0618486
0.0612636
0.060665
0.06008
0.0595452
0.0591143
0.058872
0.0589907
0.0595655
0.059663
0.0610566
0.0621737
0.0629788
0.063494
0.0637592
0.0638158
0.0637019
0.0634513
0.0630932
0.0626525
0.0621519
0.061612
0.0610544
0.0605041
0.0599944
0.0595748
0.0593231
0.0594021
0.0598911
0.0596642
0.0610567
0.0621722
0.0629774
0.0634957
0.0637674
0.063834
0.0637338
0.0635004
0.0631629
0.0627461
0.0622715
0.0617596
0.0612309
0.0607093
0.0602267
0.0598304
0.0595948
0.059678
0.0601496
0.0596648
0.0610567
0.0621712
0.0629757
0.0634942
0.0637671
0.0638361
0.0637397
0.0635117
0.0631811
0.0627728
0.0623085
0.0618083
0.0612925
0.0607849
0.0603168
0.0599349
0.0597121
0.0598052
0.0602792
0.0596648
0.0610567
0.0621712
0.0629757
0.0634942
0.0637671
0.0638361
0.0637397
0.0635117
0.0631811
0.0627728
0.0623085
0.0618083
0.0612925
0.0607849
0.0603168
0.0599349
0.0597121
0.0598052
0.0602792
0.0596642
0.0610567
0.0621722
0.0629774
0.0634957
0.0637674
0.063834
0.0637338
0.0635004
0.0631629
0.0627461
0.0622715
0.0617596
0.0612309
0.0607093
0.0602267
0.0598304
0.0595948
0.059678
0.0601496
0.059663
0.0610566
0.0621737
0.0629788
0.063494
0.0637592
0.0638158
0.0637019
0.0634513
0.0630932
0.0626526
0.0621519
0.061612
0.0610544
0.0605041
0.0599944
0.0595748
0.0593231
0.0594021
0.0598911
0.0596607
0.0610552
0.0621709
0.062968
0.0634668
0.0637078
0.0637329
0.0635814
0.0632884
0.0628844
0.0623965
0.0618486
0.0612636
0.060665
0.06008
0.0595452
0.0591143
0.058872
0.0589907
0.0595655
0.0596543
0.061042
0.0621365
0.0628932
0.0633353
0.0635076
0.063457
0.063227
0.0628567
0.0623801
0.0618272
0.0612247
0.0605976
0.0599719
0.0593782
0.0588569
0.0584685
0.058308
0.0585605
0.0593394
0.0596243
0.0609563
0.0619561
0.0625891
0.0628953
0.0629333
0.0627589
0.0624213
0.0619627
0.061419
0.0608208
0.0601949
0.0595669
0.0589635
0.058417
0.0579711
0.0576915
0.0576813
0.0581319
0.0591602
0.0594677
0.0605593
0.0612965
0.0616774
0.0617607
0.061611
0.0612842
0.0608267
0.0602769
0.0596664
0.0590221
0.0583677
0.0577261
0.0571223
0.056587
0.0561622
0.0559107
0.0559299
0.0563927
0.0573915
0.0586926
0.0590054
0.0590271
0.058759
0.0582656
0.0576118
0.0568493
0.0560186
0.0551509
0.0542662
0.0533809
0.0525129
0.0516793
0.0508978
0.0501897
0.0495848
0.0491277
0.0488877
0.0489879
0.0494819
0.0510524
0.0487271
0.046731
0.0449537
0.0433612
0.041925
0.0406208
0.0394296
0.038336
0.0373236
0.0363707
0.0354769
0.0346423
0.0338694
0.0331634
0.0325332
0.0319962
0.0315825
0.0313503
0.0313248
0.00486484
0.00498919
0.00511205
0.00523149
0.0053464
0.00545626
0.00556101
0.00566076
0.00575576
0.00584647
0.00593358
0.00601738
0.00609828
0.00617671
0.00625322
0.00632843
0.00640301
0.00647769
0.00655374
0.00662894
0.0048663
0.00499498
0.00512515
0.00525409
0.00537992
0.00550147
0.00561811
0.00572951
0.00583559
0.00593642
0.00603223
0.00612334
0.00621016
0.00629316
0.00637305
0.00645092
0.00652741
0.00660321
0.00667931
0.0067551
0.0514247
0.0496024
0.0480845
0.0467119
0.0454425
0.0442558
0.0431397
0.0420865
0.0410918
0.0401523
0.0392661
0.0384323
0.0376525
0.0369318
0.0362724
0.0356624
0.0351217
0.0346786
0.0343744
0.0342286
0.0595245
0.0606471
0.0614066
0.0618036
0.0618981
0.0617557
0.0614322
0.0609733
0.0604163
0.059792
0.0591258
0.0584412
0.0577594
0.0570961
0.0564678
0.0559064
0.0554564
0.05518
0.0551663
0.0554598
0.0615289
0.0621669
0.0629614
0.0637648
0.0644953
0.0651134
0.0656
0.0659489
0.0661637
0.0662555
0.0662404
0.0661364
0.0659666
0.0657597
0.0655512
0.0653883
0.0653371
0.0654903
0.0659819
0.0668895
0.0619373
0.0628007
0.0636735
0.0644998
0.0652508
0.065913
0.0664776
0.0669384
0.0672939
0.0675472
0.0677063
0.0677841
0.0677985
0.0677742
0.0677456
0.0677617
0.0678943
0.0682486
0.0689848
0.0702084
0.0620413
0.0630535
0.0640727
0.0650239
0.0658708
0.0665997
0.0672046
0.0676841
0.0680404
0.0682801
0.0684132
0.0684534
0.0684187
0.0683327
0.0682279
0.0681508
0.0681705
0.0683909
0.0689794
0.0700574
0.0620621
0.0631113
0.064191
0.0652215
0.066157
0.0669747
0.0676621
0.068213
0.0686268
0.0689075
0.0690637
0.0691074
0.069055
0.0689278
0.0687551
0.0685785
0.0684605
0.0684954
0.0688431
0.0696217
0.0620666
0.0631207
0.064214
0.0652704
0.0662437
0.0671087
0.06785
0.0684584
0.0689302
0.0692665
0.069473
0.069559
0.0695379
0.0694281
0.0692549
0.069055
0.0688839
0.0688262
0.0690305
0.0696026
0.0620682
0.063122
0.0642162
0.0652776
0.0662617
0.0671433
0.067907
0.0685431
0.0690468
0.0694183
0.0696617
0.0697847
0.0697989
0.0697204
0.069572
0.0693869
0.0692162
0.0691377
0.0692917
0.0697732
0.0620689
0.0631222
0.0642156
0.0652774
0.0662635
0.0671494
0.0679198
0.0685651
0.0690808
0.0694666
0.0697263
0.0698673
0.0699004
0.0698407
0.06971
0.06954
0.0693795
0.0693033
0.069448
0.0699025
0.0620689
0.0631222
0.0642156
0.0652774
0.0662635
0.0671494
0.0679198
0.0685651
0.0690808
0.0694666
0.0697263
0.0698673
0.0699004
0.0698407
0.06971
0.06954
0.0693795
0.0693033
0.069448
0.0699025
0.0620682
0.063122
0.0642162
0.0652776
0.0662617
0.0671433
0.067907
0.0685431
0.0690468
0.0694183
0.0696617
0.0697847
0.0697989
0.0697204
0.069572
0.0693869
0.0692162
0.0691377
0.0692917
0.0697732
0.0620666
0.0631207
0.064214
0.0652704
0.0662437
0.0671087
0.06785
0.0684584
0.0689302
0.0692665
0.069473
0.069559
0.069538
0.0694281
0.0692549
0.069055
0.0688839
0.0688262
0.0690305
0.0696026
0.0620621
0.0631113
0.064191
0.0652215
0.066157
0.0669747
0.0676621
0.0682131
0.0686268
0.0689076
0.0690637
0.0691074
0.069055
0.0689278
0.0687551
0.0685785
0.0684605
0.0684954
0.0688431
0.0696217
0.0620413
0.0630535
0.0640727
0.0650239
0.0658708
0.0665997
0.0672046
0.0676841
0.0680404
0.0682801
0.0684132
0.0684534
0.0684187
0.0683327
0.0682279
0.0681508
0.0681705
0.0683909
0.0689794
0.0700574
0.0619373
0.0628007
0.0636735
0.0644998
0.0652508
0.0659131
0.0664776
0.0669384
0.0672939
0.0675472
0.0677063
0.0677841
0.0677985
0.0677742
0.0677456
0.0677617
0.0678943
0.0682487
0.0689848
0.0702084
0.0615289
0.0621669
0.0629614
0.0637648
0.0644953
0.0651134
0.0656
0.0659489
0.0661637
0.0662555
0.0662404
0.0661364
0.0659666
0.0657597
0.0655512
0.0653884
0.0653372
0.0654904
0.065982
0.0668896
0.0595245
0.0606471
0.0614066
0.0618035
0.061898
0.0617556
0.0614321
0.0609732
0.0604163
0.059792
0.0591257
0.0584411
0.0577594
0.0570961
0.0564678
0.0559064
0.0554564
0.05518
0.0551663
0.0554598
0.0514247
0.0496023
0.0480845
0.0467119
0.0454425
0.0442559
0.0431398
0.0420867
0.0410919
0.0401525
0.0392662
0.0384325
0.0376527
0.036932
0.0362726
0.0356626
0.0351219
0.0346788
0.0343746
0.0342288
0.0048663
0.00499497
0.00512514
0.00525408
0.00537991
0.00550147
0.0056181
0.0057295
0.00583558
0.00593642
0.00603223
0.00612334
0.00621015
0.00629315
0.00637305
0.00645092
0.00652741
0.0066032
0.00667931
0.0067551
0.00486642
0.00499578
0.00512762
0.00525918
0.00538844
0.00551411
0.00563541
0.00575187
0.00586322
0.00596941
0.00607052
0.00616676
0.00625843
0.00634592
0.00642987
0.00651114
0.00659027
0.00666794
0.00674496
0.00682149
0.0514739
0.0497477
0.0483741
0.0471728
0.0460796
0.0450606
0.044096
0.0431752
0.0422929
0.0414473
0.0406384
0.0398682
0.0391402
0.0384597
0.0378297
0.0372487
0.0367342
0.0363079
0.0359967
0.0358128
0.0596944
0.0610776
0.0621246
0.0628023
0.0631521
0.0632331
0.0631014
0.0628059
0.0623882
0.0618834
0.0613213
0.0607276
0.0601262
0.0595421
0.0589932
0.0585029
0.0581115
0.0578703
0.0578416
0.0580573
0.0619979
0.0629064
0.0638258
0.0647011
0.065504
0.0662209
0.0668423
0.0673616
0.0677764
0.0680892
0.0683075
0.0684439
0.0685161
0.0685436
0.0685568
0.0685976
0.068724
0.069014
0.0695651
0.0704371
0.0635329
0.0637886
0.0642095
0.0647386
0.0653308
0.0659558
0.0665898
0.0672123
0.0678057
0.0683568
0.0688576
0.0693054
0.0697049
0.0700693
0.0704233
0.0708067
0.0712807
0.0719334
0.0728829
0.0742115
0.0638643
0.0643134
0.0647904
0.0652908
0.0658056
0.0663273
0.0668475
0.0673559
0.067842
0.0682966
0.068713
0.0690886
0.0694264
0.0697367
0.0700411
0.0703765
0.0708023
0.0714077
0.0723201
0.0736385
0.0639419
0.0645037
0.0650923
0.0656873
0.0662732
0.0668399
0.067379
0.0678819
0.06834
0.068746
0.0690947
0.0693845
0.0696181
0.069805
0.0699642
0.0701293
0.0703551
0.0707262
0.0713692
0.0723905
0.0639568
0.0645463
0.065179
0.0658314
0.0664815
0.0671133
0.0677134
0.0682692
0.0687692
0.0692037
0.0695656
0.069851
0.0700605
0.0702011
0.0702882
0.0703506
0.0704368
0.0706233
0.0710297
0.0717592
0.0639598
0.0645533
0.0651961
0.065867
0.066544
0.0672094
0.067848
0.0684452
0.0689871
0.0694616
0.0698594
0.070174
0.0704035
0.0705518
0.070631
0.0706657
0.0706988
0.0707995
0.0710797
0.0716358
0.0639606
0.0645542
0.0651983
0.0658731
0.0665574
0.0672339
0.0678871
0.0685019
0.069064
0.0695602
0.0699801
0.070316
0.0705645
0.0707278
0.0708162
0.0708516
0.0708741
0.0709487
0.071183
0.0716686
0.0639606
0.0645542
0.0651983
0.0658731
0.0665574
0.0672339
0.0678871
0.0685019
0.069064
0.0695602
0.0699801
0.070316
0.0705645
0.0707278
0.0708162
0.0708516
0.0708741
0.0709487
0.071183
0.0716686
0.0639598
0.0645533
0.0651961
0.065867
0.066544
0.0672094
0.067848
0.0684452
0.0689871
0.0694616
0.0698594
0.070174
0.0704035
0.0705518
0.070631
0.0706657
0.0706988
0.0707995
0.0710797
0.0716358
0.0639568
0.0645463
0.065179
0.0658314
0.0664815
0.0671133
0.0677134
0.0682692
0.0687692
0.0692037
0.0695656
0.069851
0.0700605
0.0702011
0.0702882
0.0703506
0.0704368
0.0706233
0.0710297
0.0717592
0.0639419
0.0645037
0.0650923
0.0656873
0.0662732
0.0668399
0.067379
0.0678819
0.06834
0.068746
0.0690947
0.0693845
0.0696181
0.069805
0.0699642
0.0701293
0.0703552
0.0707262
0.0713692
0.0723905
0.0638643
0.0643134
0.0647904
0.0652908
0.0658056
0.0663274
0.0668475
0.0673559
0.067842
0.0682966
0.068713
0.0690886
0.0694264
0.0697367
0.0700411
0.0703765
0.0708023
0.0714077
0.0723201
0.0736385
0.0635329
0.0637886
0.0642095
0.0647386
0.0653308
0.0659558
0.0665899
0.0672123
0.0678057
0.0683568
0.0688576
0.0693054
0.0697049
0.0700693
0.0704233
0.0708067
0.0712807
0.0719334
0.072883
0.0742115
0.0619979
0.0629064
0.0638258
0.0647011
0.065504
0.0662209
0.0668423
0.0673616
0.0677764
0.0680892
0.0683075
0.0684439
0.0685161
0.0685436
0.0685568
0.0685976
0.0687241
0.0690141
0.0695651
0.0704372
0.0596944
0.0610776
0.0621246
0.0628023
0.063152
0.0632331
0.0631014
0.0628058
0.0623881
0.0618834
0.0613212
0.0607276
0.0601261
0.0595421
0.0589931
0.0585029
0.0581115
0.0578703
0.0578416
0.0580573
0.051474
0.0497476
0.0483741
0.0471728
0.0460797
0.0450607
0.0440961
0.0431753
0.0422931
0.0414474
0.0406386
0.0398684
0.0391403
0.0384599
0.0378299
0.0372489
0.0367344
0.036308
0.0359969
0.035813
0.00486642
0.00499577
0.00512761
0.00525917
0.00538843
0.0055141
0.00563541
0.00575186
0.00586321
0.0059694
0.00607052
0.00616676
0.00625843
0.00634592
0.00642987
0.00651114
0.00659027
0.00666794
0.00674496
0.00682149
0.00486639
0.00499576
0.00512789
0.00526014
0.00539055
0.00551788
0.00564133
0.00576039
0.00587471
0.00598411
0.00608857
0.00618818
0.0062831
0.00637363
0.00646012
0.00654301
0.00662311
0.0067014
0.00677853
0.006855
0.0514816
0.0497665
0.0484219
0.0472696
0.0462408
0.0452964
0.0444123
0.0435742
0.0427738
0.0420067
0.0412717
0.0405697
0.0399037
0.0392787
0.0387023
0.0381845
0.0377324
0.0373491
0.0370557
0.0368635
0.0597253
0.0611683
0.0623173
0.0631289
0.0636279
0.0638607
0.0638751
0.0637155
0.0634218
0.0630285
0.062566
0.0620616
0.0615401
0.0610267
0.0605476
0.0601349
0.0598073
0.0596058
0.0595765
0.0597453
0.0621144
0.0631899
0.0642797
0.06531
0.066246
0.0670754
0.0677933
0.0683988
0.0688947
0.069288
0.0695894
0.0698135
0.0699791
0.07011
0.070237
0.070393
0.0706274
0.0710036
0.0715939
0.0724455
0.0639189
0.0644076
0.0649266
0.0654739
0.0660436
0.0666302
0.0672272
0.0678259
0.068417
0.0689924
0.0695464
0.0700774
0.0705892
0.0710928
0.0716083
0.0721693
0.072826
0.0736488
0.0747243
0.0761162
0.0652817
0.0653505
0.0655289
0.0657881
0.0661037
0.0664599
0.0668466
0.067256
0.0676805
0.068114
0.0685515
0.0689912
0.0694352
0.0698919
0.0703792
0.0709281
0.0715879
0.0724309
0.0735513
0.0750266
0.0655591
0.0658065
0.06606
0.0663259
0.0666033
0.0668905
0.0671856
0.0674858
0.0677875
0.0680864
0.0683794
0.068665
0.0689453
0.0692279
0.0695291
0.069878
0.0703215
0.0709306
0.0718021
0.073023
0.0656199
0.0659577
0.0663024
0.0666479
0.066988
0.0673185
0.0676368
0.0679401
0.068225
0.0684876
0.0687247
0.0689344
0.0691177
0.0692805
0.0694368
0.069612
0.0698493
0.0702148
0.0708032
0.0717043
0.0656312
0.065991
0.0663704
0.0667605
0.0671502
0.067531
0.0678964
0.0682406
0.0685576
0.0688415
0.069087
0.0692904
0.0694507
0.0695715
0.0696638
0.0697497
0.069868
0.07008
0.070476
0.0711449
0.0656331
0.0659965
0.066384
0.066788
0.0671969
0.0676007
0.0679916
0.0683621
0.0687045
0.0690112
0.0692751
0.069491
0.0696561
0.0697722
0.0698485
0.0699047
0.069977
0.0701233
0.0704312
0.0709881
0.0656331
0.0659965
0.066384
0.066788
0.0671969
0.0676007
0.0679916
0.0683621
0.0687045
0.0690112
0.0692751
0.069491
0.0696561
0.0697722
0.0698485
0.0699047
0.069977
0.0701233
0.0704312
0.0709881
0.0656312
0.065991
0.0663704
0.0667605
0.0671502
0.067531
0.0678964
0.0682406
0.0685576
0.0688415
0.069087
0.0692904
0.0694507
0.0695715
0.0696638
0.0697497
0.069868
0.07008
0.070476
0.0711449
0.0656199
0.0659578
0.0663024
0.0666479
0.066988
0.0673185
0.0676368
0.0679401
0.068225
0.0684876
0.0687247
0.0689344
0.0691177
0.0692805
0.0694368
0.069612
0.0698493
0.0702148
0.0708032
0.0717043
0.0655591
0.0658065
0.06606
0.0663259
0.0666033
0.0668905
0.0671856
0.0674858
0.0677875
0.0680864
0.0683794
0.068665
0.0689453
0.0692279
0.0695291
0.069878
0.0703215
0.0709306
0.0718021
0.073023
0.0652817
0.0653505
0.0655289
0.0657881
0.0661037
0.0664599
0.0668467
0.067256
0.0676805
0.068114
0.0685515
0.0689912
0.0694352
0.0698919
0.0703792
0.0709281
0.0715879
0.0724309
0.0735513
0.0750266
0.0639189
0.0644076
0.0649265
0.0654739
0.0660436
0.0666302
0.0672272
0.0678259
0.068417
0.0689924
0.0695464
0.0700774
0.0705892
0.0710928
0.0716083
0.0721693
0.072826
0.0736488
0.0747243
0.0761162
0.0621144
0.0631899
0.0642797
0.0653099
0.066246
0.0670754
0.0677933
0.0683988
0.0688947
0.069288
0.0695894
0.0698135
0.0699791
0.0701101
0.0702371
0.070393
0.0706275
0.0710037
0.0715939
0.0724456
0.0597253
0.0611683
0.0623173
0.0631289
0.0636279
0.0638606
0.063875
0.0637155
0.0634217
0.0630284
0.062566
0.0620615
0.0615401
0.0610266
0.0605475
0.0601348
0.0598073
0.0596058
0.0595765
0.0597453
0.0514816
0.0497665
0.0484219
0.0472696
0.0462408
0.0452965
0.0444124
0.0435744
0.0427739
0.0420069
0.0412719
0.0405699
0.0399039
0.0392789
0.0387025
0.0381847
0.0377326
0.0373492
0.0370559
0.0368636
0.00486639
0.00499575
0.00512788
0.00526013
0.00539054
0.00551787
0.00564133
0.00576038
0.0058747
0.00598411
0.00608857
0.00618817
0.0062831
0.00637363
0.00646012
0.00654301
0.00662311
0.0067014
0.00677853
0.006855
0.00486637
0.0049957
0.00512787
0.00526029
0.005391
0.00551878
0.00564287
0.00576272
0.00587802
0.00598857
0.00609431
0.0061953
0.00629169
0.00638371
0.00647165
0.00655588
0.00663684
0.0067156
0.00679282
0.0068691
0.0514836
0.0497683
0.0484274
0.0472866
0.046278
0.0453613
0.0445116
0.043713
0.0429561
0.0422351
0.0415474
0.0408929
0.0402734
0.0396931
0.0391584
0.0386786
0.0382652
0.0379174
0.0376477
0.0374666
0.0597309
0.0611812
0.0623534
0.0632085
0.0637689
0.0640761
0.064174
0.064103
0.0638997
0.0635961
0.0632208
0.0627995
0.0623562
0.0619146
0.0614999
0.06114
0.0608675
0.0607007
0.0606761
0.060818
0.0621362
0.0632523
0.0644097
0.0655301
0.0665699
0.0675086
0.068336
0.069048
0.0696461
0.0701367
0.070531
0.0708443
0.0710961
0.0713104
0.071517
0.0717527
0.0720578
0.0724822
0.0730829
0.0739017
0.0640079
0.0646256
0.0652773
0.0659465
0.0666215
0.0672961
0.067966
0.068626
0.0692714
0.0698984
0.0705054
0.0710946
0.0716726
0.0722521
0.0728536
0.0735075
0.0742566
0.0751583
0.0762797
0.0776746
0.0656083
0.0658905
0.0661803
0.0664871
0.0668127
0.0671581
0.067524
0.0679102
0.0683157
0.0687392
0.0691804
0.0696407
0.0701255
0.070645
0.0712174
0.0718713
0.0726493
0.0736107
0.074829
0.0763685
0.0668181
0.0668034
0.0668656
0.0669843
0.067142
0.0673269
0.0675327
0.0677555
0.0679927
0.0682427
0.0685053
0.0687826
0.0690799
0.0694077
0.0697837
0.0702364
0.0708082
0.0715598
0.0725687
0.0739086
0.0670543
0.0671989
0.0673393
0.0674827
0.0676298
0.0677796
0.0679314
0.0680839
0.068236
0.0683864
0.0685347
0.0686821
0.0688329
0.0689961
0.0691878
0.0694345
0.069777
0.0702746
0.0710056
0.0720494
0.0671036
0.067323
0.0675395
0.0677501
0.0679509
0.0681391
0.068313
0.0684714
0.0686129
0.0687365
0.0688412
0.068928
0.0690002
0.0690657
0.0691391
0.0692449
0.0694221
0.0697281
0.0702408
0.0710423
0.0671122
0.0673495
0.0675932
0.0678371
0.0680734
0.0682956
0.0684993
0.0686809
0.0688377
0.0689671
0.0690677
0.0691395
0.0691851
0.0692117
0.0692329
0.0692724
0.0693679
0.0695757
0.0699733
0.0706444
0.0671122
0.0673495
0.0675932
0.0678371
0.0680734
0.0682956
0.0684993
0.0686809
0.0688377
0.0689671
0.0690677
0.0691395
0.0691851
0.0692117
0.0692329
0.0692724
0.0693679
0.0695757
0.0699733
0.0706444
0.0671036
0.067323
0.0675395
0.0677501
0.0679509
0.0681391
0.068313
0.0684714
0.0686129
0.0687365
0.0688412
0.068928
0.0690002
0.0690657
0.0691391
0.0692449
0.0694221
0.0697281
0.0702408
0.0710423
0.0670543
0.0671989
0.0673393
0.0674827
0.0676298
0.0677797
0.0679314
0.0680839
0.068236
0.0683864
0.0685347
0.0686821
0.0688329
0.0689961
0.0691878
0.0694345
0.069777
0.0702746
0.0710056
0.0720494
0.0668181
0.0668034
0.0668656
0.0669843
0.067142
0.0673269
0.0675327
0.0677556
0.0679927
0.0682427
0.0685053
0.0687826
0.0690799
0.0694077
0.0697837
0.0702364
0.0708082
0.0715598
0.0725686
0.0739086
0.0656083
0.0658905
0.0661803
0.0664871
0.0668127
0.0671581
0.067524
0.0679102
0.0683157
0.0687392
0.0691803
0.0696407
0.0701255
0.070645
0.0712174
0.0718713
0.0726493
0.0736107
0.074829
0.0763685
0.0640079
0.0646255
0.0652773
0.0659465
0.0666215
0.0672961
0.0679659
0.068626
0.0692714
0.0698983
0.0705054
0.0710946
0.0716726
0.0722521
0.0728536
0.0735075
0.0742566
0.0751583
0.0762797
0.0776746
0.0621362
0.0632523
0.0644096
0.0655301
0.0665699
0.0675086
0.068336
0.069048
0.0696461
0.0701367
0.070531
0.0708443
0.0710961
0.0713104
0.071517
0.0717527
0.0720579
0.0724823
0.0730829
0.0739018
0.0597309
0.0611812
0.0623534
0.0632085
0.0637688
0.0640761
0.0641739
0.064103
0.0638996
0.063596
0.0632207
0.0627994
0.0623561
0.0619146
0.0614999
0.0611399
0.0608674
0.0607007
0.0606761
0.060818
0.0514836
0.0497683
0.0484273
0.0472867
0.046278
0.0453614
0.0445117
0.0437132
0.0429562
0.0422352
0.0415476
0.0408931
0.0402736
0.0396932
0.0391586
0.0386787
0.0382654
0.0379175
0.0376478
0.0374667
0.00486637
0.0049957
0.00512786
0.00526028
0.00539099
0.00551878
0.00564286
0.00576272
0.00587801
0.00598856
0.0060943
0.0061953
0.00629169
0.00638371
0.00647165
0.00655588
0.00663684
0.0067156
0.00679282
0.0068691
0.00486636
0.00499567
0.00512786
0.00526036
0.00539122
0.00551923
0.00564362
0.00576389
0.0058797
0.00599086
0.00609729
0.00619905
0.00629624
0.00638905
0.00647775
0.00656266
0.00664415
0.00672266
0.00679932
0.00687478
0.0514846
0.0497685
0.048427
0.0472882
0.0462849
0.0453771
0.0445398
0.0437572
0.0430197
0.0423212
0.0416589
0.0410319
0.0404417
0.0398914
0.0393867
0.0389353
0.0385476
0.0382354
0.0379937
0.0378329
0.0597324
0.061182
0.0623565
0.0632215
0.0638004
0.0641347
0.0642674
0.0642381
0.0640821
0.0638302
0.0635095
0.0631443
0.0627572
0.0623702
0.0620061
0.0616895
0.0614483
0.0613128
0.0612992
0.0614305
0.0621401
0.0632613
0.0644338
0.0655834
0.0666662
0.0676595
0.0685508
0.0693337
0.0700076
0.0705771
0.0710518
0.0714454
0.071776
0.0720662
0.0723434
0.0726406
0.0729974
0.0734578
0.0740638
0.0748566
0.0640241
0.0646724
0.0653744
0.0661105
0.0668633
0.0676214
0.0683767
0.069122
0.0698512
0.0705601
0.0712475
0.0719161
0.0725727
0.0732302
0.0739083
0.0746352
0.075449
0.0763964
0.0775334
0.0789116
0.0656796
0.0660665
0.0664661
0.066876