/*--------------------------------*- C++ -*----------------------------------*\
  =========                 |
  \\      /  F ield         | OpenFOAM: The Open Source CFD Toolbox
   \\    /   O peration     | Website:  https://openfoam.org
    \\  /    A nd           | Version:  10
     \\/     M anipulation  |
\*---------------------------------------------------------------------------*/
FoamFile
{
    format      ascii;
    class       volScalarField;
    location    "150";
    object      p;
}
// * * * * * * * * * * * * * * * * * * * * * * * * * * * * * * * * * * * * * //

dimensions      [1 -1 -2 0 0 0 0];

internalField   nonuniform List<scalar> 
112000
(
165481
164893
164445
164190
164006
163820
163607
163360
163069
162721
162303
161797
161183
160430
159501
158338
156855
154911
152253
148473
164243
164147
164009
163897
163787
163650
163473
163253
162982
162649
162243
161747
161141
160395
159471
158312
156832
154888
152225
148444
164391
164345
164245
164117
163973
163804
163604
163363
163074
162727
162309
161803
161186
160432
159500
158331
156840
154883
152200
148397
164384
164276
164136
163996
163851
163688
163495
163264
162984
162645
162233
161732
161119
160366
159433
158262
156763
154793
152087
148251
164370
164258
164127
164004
163873
163719
163530
163299
163018
162676
162259
161752
161133
160372
159429
158244
156729
154737
151999
148122
164354
164241
164109
163984
163851
163694
163501
163268
162984
162639
162221
161711
161088
160323
159373
158179
156651
154639
151874
147960
164339
164227
164096
163973
163841
163685
163495
163263
162979
162635
162215
161703
161076
160306
159349
158145
156603
154574
151783
147836
164328
164216
164086
163963
163833
163676
163485
163252
162967
162621
162198
161683
161053
160278
159315
158103
156551
154507
151698
147725
164320
164209
164079
163957
163827
163671
163479
163246
162961
162613
162190
161674
161042
160263
159296
158079
156520
154467
151645
147654
164316
164205
164076
163954
163824
163668
163476
163242
162957
162609
162185
161668
161034
160254
159285
158065
156502
154444
151615
147615
164316
164205
164076
163954
163824
163668
163476
163242
162957
162609
162185
161668
161034
160254
159285
158065
156502
154444
151615
147615
164320
164209
164079
163957
163827
163671
163479
163246
162961
162613
162190
161674
161042
160263
159296
158079
156520
154467
151645
147654
164328
164216
164086
163963
163833
163676
163485
163252
162967
162621
162198
161683
161053
160278
159315
158103
156551
154507
151698
147725
164339
164227
164096
163973
163841
163685
163495
163263
162979
162635
162215
161703
161076
160306
159349
158145
156603
154574
151783
147836
164354
164241
164109
163984
163851
163694
163501
163268
162984
162639
162221
161711
161088
160323
159373
158179
156650
154639
151874
147960
164370
164258
164127
164004
163873
163719
163530
163299
163018
162676
162259
161752
161133
160372
159429
158244
156729
154737
151999
148122
164384
164276
164136
163996
163851
163688
163495
163264
162984
162645
162233
161732
161119
160366
159433
158262
156763
154793
152087
148251
164391
164345
164245
164117
163973
163804
163604
163363
163074
162727
162309
161803
161186
160432
159500
158331
156840
154883
152200
148397
164243
164147
164009
163897
163787
163650
163473
163253
162982
162649
162243
161747
161141
160395
159471
158312
156832
154888
152225
148444
165481
164893
164445
164190
164006
163820
163607
163360
163069
162721
162303
161797
161183
160430
159501
158338
156855
154911
152253
148473
164273
164178
164040
163928
163818
163683
163509
163293
163026
162700
162303
161820
161229
160506
159615
158505
157105
155311
152962
149883
163162
163376
163533
163589
163570
163492
163359
163173
162928
162619
162234
161760
161176
160457
159567
158457
157054
155252
152889
149804
163300
163559
163739
163783
163736
163630
163475
163269
163008
162685
162287
161801
161207
160478
159578
158456
157039
155219
152832
149728
163270
163492
163636
163668
163623
163523
163375
163178
162925
162608
162215
161733
161140
160411
159508
158380
156953
155118
152707
149576
163246
163475
163627
163669
163634
163542
163397
163200
162945
162625
162229
161741
161142
160405
159492
158351
156908
155051
152611
149445
163226
163457
163610
163651
163613
163518
163371
163172
162915
162593
162194
161704
161100
160357
159437
158286
156829
154953
152485
149286
163210
163443
163597
163639
163603
163509
163363
163164
162908
162585
162184
161691
161084
160336
159408
158247
156776
154882
152390
149160
163198
163431
163587
163631
163594
163500
163353
163154
162896
162571
162168
161672
161062
160308
159374
158205
156724
154815
152304
149051
163190
163424
163581
163625
163588
163494
163347
163147
162889
162563
162160
161662
161049
160293
159355
158180
156691
154773
152249
148979
163186
163420
163577
163622
163585
163491
163344
163144
162885
162559
162154
161656
161041
160284
159343
158166
156673
154750
152220
148941
163186
163420
163577
163622
163585
163491
163344
163144
162885
162559
162154
161656
161041
160284
159343
158166
156673
154750
152220
148941
163190
163424
163581
163625
163588
163494
163347
163147
162889
162563
162160
161662
161049
160293
159355
158180
156691
154773
152249
148979
163198
163431
163587
163631
163594
163500
163353
163154
162896
162571
162168
161672
161062
160308
159374
158205
156724
154815
152304
149051
163210
163443
163597
163639
163603
163509
163363
163164
162908
162585
162184
161691
161084
160336
159408
158247
156776
154882
152390
149160
163226
163457
163610
163651
163613
163518
163371
163172
162915
162593
162194
161704
161100
160357
159437
158286
156829
154953
152485
149286
163246
163475
163627
163669
163634
163542
163397
163200
162945
162625
162229
161741
161142
160405
159492
158351
156908
155051
152611
149445
163270
163492
163636
163668
163623
163523
163375
163178
162925
162608
162215
161733
161140
160411
159508
158380
156953
155118
152707
149576
163300
163559
163739
163783
163736
163630
163475
163269
163008
162685
162287
161801
161207
160478
159578
158456
157039
155219
152832
149728
163162
163376
163533
163589
163570
163492
163359
163173
162928
162619
162234
161760
161176
160457
159567
158457
157054
155252
152889
149804
164273
164178
164040
163928
163818
163683
163509
163293
163026
162700
162303
161820
161229
160506
159615
158505
157105
155311
152962
149883
164477
164431
164332
164207
164068
163908
163718
163493
163224
162902
162516
162052
161492
160814
159986
158970
157713
156146
154176
151729
163360
163618
163799
163846
163803
163704
163557
163362
163116
162811
162438
161983
161429
160754
159927
158909
157647
156070
154083
151623
163927
163981
164073
164069
163978
163837
163657
163438
163172
162851
162464
161997
161431
160745
159906
158875
157598
156001
153988
151504
163865
163904
163955
163941
163858
163727
163556
163345
163087
162772
162389
161924
161359
160671
159829
158790
157502
155888
153850
151340
163808
163891
163957
163949
163872
163745
163574
163361
163099
162779
162390
161919
161347
160650
159797
158746
157440
155805
153739
151197
163777
163876
163947
163934
163852
163721
163549
163333
163069
162746
162355
161881
161304
160601
159740
158677
157357
155703
153611
151039
163757
163861
163936
163924
163842
163711
163539
163323
163058
162735
162342
161864
161283
160573
159704
158631
157297
155625
153509
150910
163742
163848
163927
163916
163833
163702
163529
163312
163046
162721
162325
161844
161259
160545
159669
158588
157243
155556
153422
150800
163733
163840
163921
163911
163828
163696
163522
163305
163038
162712
162315
161832
161245
160528
159648
158561
157208
155512
153364
150727
163728
163836
163917
163908
163825
163693
163519
163302
163034
162707
162310
161826
161237
160518
159636
158546
157190
155488
153334
150689
163728
163836
163917
163908
163825
163693
163519
163302
163034
162707
162310
161826
161237
160518
159636
158546
157190
155488
153334
150689
163733
163840
163921
163911
163828
163696
163522
163305
163038
162712
162315
161832
161245
160528
159648
158561
157208
155512
153364
150727
163742
163848
163927
163916
163833
163702
163529
163312
163046
162721
162325
161844
161259
160545
159669
158588
157243
155556
153422
150800
163757
163861
163936
163924
163842
163711
163539
163323
163058
162735
162342
161864
161283
160573
159704
158631
157297
155625
153509
150910
163777
163876
163947
163934
163852
163721
163549
163333
163069
162746
162355
161881
161304
160601
159740
158677
157357
155703
153611
151039
163808
163891
163957
163949
163872
163745
163574
163361
163099
162779
162390
161919
161347
160650
159797
158746
157440
155805
153739
151197
163865
163904
163955
163941
163858
163727
163556
163345
163087
162772
162389
161924
161359
160671
159829
158790
157502
155888
153850
151340
163927
163981
164073
164068
163978
163837
163657
163438
163172
162851
162464
161997
161431
160745
159906
158875
157598
156001
153988
151504
163360
163618
163799
163846
163803
163704
163557
163362
163116
162811
162438
161983
161429
160754
159927
158909
157647
156070
154083
151623
164477
164431
164332
164207
164068
163908
163718
163493
163224
162902
162516
162052
161492
160814
159986
158970
157713
156146
154176
151729
164550
164442
164306
164174
164042
163898
163731
163533
163295
163009
162666
162251
161752
161149
160420
159535
158460
157152
155566
153676
163411
163634
163783
163823
163790
163708
163584
163417
163201
162932
162600
162194
161700
161100
160371
159485
158406
157091
155491
153589
163952
163991
164046
164037
163963
163843
163688
163495
163260
162974
162628
162209
161704
161093
160352
159453
158358
157023
155398
153472
164197
164042
163981
163940
163865
163752
163603
163417
163188
162907
162564
162147
161641
161027
160282
159374
158266
156914
155266
153312
164106
164017
163971
163938
163873
163765
163618
163430
163197
162911
162562
162138
161624
161001
160245
159324
158200
156827
155151
153168
164046
164005
163972
163931
163858
163746
163595
163405
163169
162880
162528
162101
161582
160953
160187
159255
158117
156725
155026
153015
164015
163991
163967
163924
163848
163735
163584
163394
163157
162866
162512
162081
161557
160921
160148
159205
158053
156644
154922
152886
163996
163977
163959
163918
163841
163726
163574
163382
163144
162851
162494
162060
161532
160891
160111
159160
157997
156574
154834
152778
163984
163967
163953
163914
163836
163720
163567
163375
163136
162842
162483
162047
161516
160872
160087
159130
157960
156527
154775
152705
163978
163962
163950
163912
163833
163717
163564
163371
163131
162837
162477
162040
161508
160862
160075
159115
157940
156502
154744
152667
163978
163962
163950
163912
163833
163717
163564
163371
163131
162837
162477
162040
161508
160862
160075
159115
157940
156502
154744
152667
163984
163967
163953
163914
163836
163720
163567
163375
163136
162842
162483
162047
161516
160872
160087
159130
157960
156527
154775
152705
163996
163977
163959
163918
163841
163726
163574
163382
163144
162851
162494
162060
161532
160891
160111
159160
157997
156574
154834
152778
164015
163991
163967
163924
163848
163735
163584
163394
163157
162866
162512
162081
161557
160921
160148
159205
158053
156644
154922
152886
164046
164005
163972
163931
163858
163746
163595
163405
163169
162880
162528
162101
161582
160953
160187
159255
158117
156725
155026
153015
164106
164017
163971
163938
163873
163765
163618
163430
163197
162911
162562
162138
161624
161001
160245
159324
158200
156827
155151
153168
164197
164042
163981
163940
163865
163752
163603
163417
163188
162907
162564
162147
161641
161027
160282
159374
158266
156914
155266
153312
163952
163991
164046
164037
163963
163843
163688
163495
163260
162974
162628
162209
161704
161093
160352
159453
158358
157023
155398
153472
163411
163634
163783
163823
163790
163708
163584
163417
163201
162932
162600
162194
161700
161100
160371
159485
158406
157091
155491
153589
164550
164442
164306
164174
164042
163898
163731
163533
163295
163009
162666
162251
161752
161149
160420
159535
158460
157152
155566
153676
164635
164525
164401
164293
164186
164064
163918
163742
163531
163277
162973
162608
162172
161650
161026
160281
159393
158339
157100
155674
163487
163718
163879
163937
163925
163864
163761
163617
163428
163192
162900
162545
162116
161598
160977
160232
159341
158282
157033
155596
163999
164084
164157
164162
164104
164002
163865
163694
163484
163230
162924
162556
162115
161587
160955
160198
159294
158218
156948
155487
164215
164126
164084
164058
164003
163910
163781
163617
163413
163164
162861
162495
162054
161524
160888
160123
159208
158117
156826
155340
164367
164201
164114
164075
164022
163930
163799
163630
163422
163167
162858
162485
162037
161497
160850
160073
159142
158032
156716
155203
164276
164176
164104
164060
164002
163907
163775
163604
163393
163136
162824
162448
161994
161449
160794
160007
159063
157935
156598
155060
164219
164163
164108
164060
163996
163899
163765
163593
163381
163121
162806
162426
161967
161415
160752
159954
158997
157853
156496
154936
164190
164150
164105
164057
163989
163889
163754
163581
163367
163105
162788
162404
161941
161384
160713
159908
158940
157783
156410
154832
164174
164139
164101
164054
163985
163883
163747
163573
163358
163095
162776
162390
161924
161363
160688
159877
158902
157736
156351
154761
164167
164134
164098
164053
163983
163880
163743
163569
163353
163090
162769
162382
161915
161352
160675
159860
158882
157711
156320
154723
164167
164134
164098
164053
163983
163880
163743
163569
163353
163090
162769
162382
161915
161352
160675
159860
158882
157711
156320
154723
164174
164139
164101
164054
163985
163883
163747
163573
163358
163095
162776
162390
161924
161363
160688
159877
158902
157736
156351
154761
164190
164150
164105
164057
163989
163889
163754
163581
163367
163105
162788
162404
161941
161384
160713
159908
158940
157783
156410
154832
164219
164163
164108
164060
163996
163899
163765
163593
163381
163121
162806
162426
161967
161415
160752
159954
158997
157853
156496
154936
164276
164176
164104
164060
164002
163907
163775
163604
163393
163136
162824
162448
161994
161449
160794
160007
159063
157935
156598
155060
164367
164201
164114
164075
164022
163930
163799
163630
163422
163167
162858
162485
162037
161497
160850
160073
159142
158032
156716
155203
164215
164126
164084
164058
164003
163910
163781
163617
163413
163164
162861
162495
162054
161524
160888
160123
159208
158117
156826
155340
163999
164084
164157
164162
164104
164002
163865
163694
163484
163230
162924
162556
162115
161587
160955
160198
159294
158218
156948
155487
163487
163718
163879
163937
163925
163864
163761
163617
163428
163192
162900
162545
162116
161598
160977
160232
159341
158282
157033
155596
164635
164525
164401
164293
164186
164064
163918
163742
163531
163277
162973
162608
162172
161650
161026
160281
159393
158339
157100
155674
164734
164626
164506
164405
164307
164198
164070
163918
163738
163524
163268
162965
162605
162178
161672
161077
160379
159569
158643
157609
163583
163819
163985
164050
164048
164001
163917
163798
163642
163445
163203
162909
162556
162133
161630
161035
160336
159522
158588
157544
164087
164189
164272
164281
164231
164143
164025
163879
163702
163488
163232
162926
162561
162128
161615
161009
160298
159469
158517
157451
164278
164238
164213
164188
164139
164058
163948
163809
163638
163430
163177
162873
162509
162074
161558
160946
160225
159383
158413
157325
164403
164304
164236
164201
164156
164078
163968
163826
163650
163436
163178
162867
162496
162053
161527
160904
160169
159310
158319
157205
164518
164364
164260
164203
164146
164063
163948
163803
163624
163408
163147
162834
162458
162010
161477
160844
160098
159224
158214
157079
164433
164340
164255
164196
164136
164051
163937
163791
163611
163393
163129
162812
162431
161977
161436
160795
160037
159149
158122
156967
164381
164327
164260
164199
164133
164044
163927
163779
163597
163377
163110
162789
162405
161946
161399
160749
159982
159083
158041
156872
164357
164317
164259
164199
164129
164038
163919
163771
163588
163366
163098
162775
162388
161925
161373
160718
159944
159036
157985
156805
164347
164311
164258
164198
164127
164035
163916
163766
163583
163360
163091
162767
162378
161914
161360
160702
159924
159012
157955
156769
164347
164311
164258
164198
164127
164035
163916
163766
163583
163360
163091
162767
162378
161914
161360
160702
159924
159012
157955
156769
164357
164317
164259
164199
164129
164038
163919
163771
163588
163366
163098
162775
162388
161925
161373
160718
159944
159036
157985
156805
164381
164327
164260
164199
164133
164044
163927
163779
163597
163377
163110
162789
162405
161946
161399
160749
159982
159083
158041
156872
164433
164340
164255
164196
164136
164051
163937
163791
163611
163393
163129
162812
162431
161977
161436
160795
160037
159149
158122
156967
164518
164364
164260
164203
164146
164063
163948
163803
163624
163408
163147
162834
162458
162010
161477
160844
160098
159224
158214
157079
164403
164304
164236
164201
164156
164078
163968
163826
163650
163436
163178
162867
162496
162053
161527
160904
160169
159310
158319
157205
164278
164238
164213
164188
164138
164058
163948
163809
163638
163430
163177
162873
162509
162074
161558
160946
160225
159383
158413
157325
164087
164189
164272
164281
164231
164143
164025
163879
163702
163488
163232
162926
162561
162128
161615
161009
160298
159469
158517
157451
163583
163819
163985
164050
164048
164001
163917
163798
163642
163445
163203
162909
162556
162133
161630
161035
160336
159522
158588
157544
164734
164626
164506
164405
164307
164198
164070
163918
163738
163524
163268
162965
162605
162178
161672
161077
160379
159569
158643
157609
164849
164743
164629
164538
164456
164367
164264
164143
164000
163830
163629
163390
163109
162779
162393
161945
161428
160841
160187
159479
163696
163935
164109
164184
164197
164170
164111
164022
163902
163750
163562
163334
163060
162735
162352
161905
161387
160798
160138
159422
164198
164307
164400
164419
164382
164313
164219
164104
163963
163794
163591
163351
163067
162732
162340
161883
161355
160752
160078
159343
164381
164359
164348
164331
164293
164230
164145
164037
163902
163738
163540
163303
163019
162684
162289
161827
161292
160679
159990
159237
164483
164430
164383
164354
164317
164257
164170
164057
163918
163749
163545
163301
163011
162668
162265
161793
161246
160619
159913
159138
164575
164482
164402
164353
164307
164241
164151
164037
163895
163724
163519
163272
162979
162632
162223
161744
161187
160548
159826
159033
164672
164532
164425
164361
164305
164236
164143
164027
163884
163711
163503
163253
162956
162604
162188
161701
161135
160484
159748
158938
164596
164510
164422
164357
164298
164226
164132
164015
163870
163695
163484
163232
162931
162574
162154
161660
161086
160426
159678
158856
164552
164501
164428
164362
164297
164222
164126
164007
163862
163685
163472
163218
162914
162554
162130
161631
161051
160384
159628
158797
164536
164496
164430
164363
164295
164218
164122
164003
163856
163679
163466
163210
162905
162543
162116
161616
161033
160362
159601
158766
164536
164496
164430
164363
164295
164218
164122
164003
163856
163679
163466
163210
162905
162543
162116
161616
161033
160362
159601
158766
164552
164501
164428
164362
164297
164222
164126
164007
163862
163685
163472
163218
162914
162554
162130
161631
161051
160384
159628
158797
164596
164510
164422
164357
164298
164226
164132
164015
163870
163695
163484
163232
162931
162574
162154
161660
161086
160426
159678
158856
164672
164532
164425
164361
164305
164236
164143
164027
163884
163711
163503
163253
162956
162604
162188
161701
161135
160484
159748
158938
164575
164482
164402
164353
164307
164241
164151
164037
163895
163724
163519
163272
162979
162632
162223
161744
161187
160548
159826
159033
164483
164430
164383
164354
164317
164257
164170
164057
163918
163749
163545
163301
163011
162668
162265
161793
161246
160619
159913
159138
164381
164359
164348
164331
164293
164230
164145
164037
163902
163738
163540
163303
163019
162684
162289
161827
161292
160679
159990
159237
164198
164307
164400
164419
164382
164313
164220
164104
163963
163794
163591
163351
163067
162732
162340
161883
161355
160752
160078
159343
163696
163935
164109
164184
164197
164170
164111
164022
163902
163750
163562
163334
163060
162735
162352
161905
161387
160798
160138
159422
164849
164743
164629
164538
164456
164367
164264
164143
164000
163830
163629
163390
163109
162779
162393
161945
161428
160841
160187
159479
164976
164873
164766
164686
164619
164549
164470
164379
164274
164149
164003
163832
163633
163401
163133
162828
162482
162098
161683
161251
163822
164064
164246
164333
164360
164352
164318
164259
164177
164071
163939
163778
163586
163360
163096
162791
162446
162060
161641
161202
164323
164436
164539
164569
164547
164496
164428
164343
164240
164117
163971
163798
163596
163361
163088
162775
162420
162024
161592
161138
164504
164489
164491
164485
164460
164416
164356
164278
164182
164065
163924
163754
163554
163319
163044
162728
162367
161963
161521
161051
164600
164563
164533
164514
164488
164445
164383
164302
164201
164079
163933
163758
163552
163310
163029
162704
162334
161918
161461
160974
164672
164620
164562
164521
164484
164436
164370
164286
164184
164060
163912
163736
163527
163282
162996
162666
162288
161863
161394
160893
164748
164663
164580
164525
164482
164430
164364
164279
164176
164050
163900
163722
163510
163261
162970
162634
162249
161814
161335
160820
164837
164708
164603
164534
164482
164426
164356
164270
164164
164037
163885
163704
163489
163237
162942
162601
162210
161769
161281
160756
164772
164691
164601
164532
164477
164419
164349
164262
164156
164027
163874
163691
163475
163220
162922
162577
162182
161735
161241
160709
164740
164688
164608
164537
164478
164418
164346
164258
164151
164022
163868
163684
163466
163210
162911
162564
162166
161717
161219
160684
164740
164688
164608
164537
164478
164418
164346
164258
164151
164022
163868
163684
163466
163210
162911
162564
162166
161717
161219
160684
164772
164691
164601
164532
164477
164419
164349
164262
164156
164027
163874
163691
163475
163220
162922
162577
162182
161735
161241
160709
164837
164708
164603
164534
164482
164426
164356
164270
164164
164037
163885
163704
163489
163237
162942
162601
162210
161769
161281
160756
164748
164663
164580
164525
164482
164430
164364
164279
164176
164051
163900
163722
163510
163261
162970
162634
162249
161814
161335
160820
164672
164620
164562
164521
164484
164436
164370
164286
164184
164060
163912
163736
163527
163282
162996
162666
162288
161863
161394
160893
164600
164563
164533
164514
164488
164445
164383
164302
164201
164079
163933
163758
163552
163310
163029
162704
162334
161918
161461
160974
164504
164489
164491
164485
164460
164416
164356
164278
164182
164065
163924
163754
163554
163319
163044
162728
162367
161963
161521
161051
164323
164436
164539
164569
164547
164496
164428
164343
164240
164117
163970
163798
163596
163361
163088
162775
162420
162024
161592
161138
163822
164064
164246
164333
164360
164352
164318
164259
164177
164071
163939
163778
163586
163360
163096
162791
162446
162060
161641
161202
164976
164873
164766
164686
164619
164549
164470
164380
164274
164149
164003
163832
163633
163401
163133
162828
162482
162098
161683
161251
165114
165013
164912
164844
164792
164743
164690
164631
164564
164487
164399
164296
164178
164043
163890
163719
163532
163331
163125
162925
163959
164204
164392
164491
164534
164546
164537
164511
164468
164409
164334
164242
164132
164002
163854
163685
163498
163296
163088
162884
164460
164576
164687
164729
164722
164691
164648
164595
164532
164456
164368
164264
164144
164006
163849
163673
163478
163267
163048
162832
164640
164630
164641
164648
164638
164613
164578
164533
164476
164407
164324
164224
164106
163969
163812
163634
163435
163219
162992
162763
164734
164705
164686
164679
164668
164644
164608
164559
164499
164425
164337
164232
164110
163968
163804
163619
163413
163188
162950
162708
164801
164764
164722
164692
164667
164637
164598
164547
164485
164410
164321
164216
164092
163947
163781
163593
163381
163149
162903
162651
164860
164812
164749
164704
164671
164637
164596
164545
164482
164406
164315
164208
164082
163935
163766
163573
163356
163118
162864
162602
164932
164852
164767
164709
164670
164633
164591
164538
164474
164396
164305
164196
164068
163919
163747
163551
163330
163088
162828
162559
165021
164897
164788
164718
164672
164632
164587
164533
164467
164389
164297
164187
164058
163907
163733
163535
163312
163066
162802
162528
164975
164885
164784
164715
164669
164629
164584
164529
164464
164385
164292
164182
164052
163900
163725
163526
163301
163054
162788
162511
164975
164885
164784
164715
164669
164629
164584
164529
164464
164385
164292
164182
164052
163900
163725
163526
163301
163054
162788
162511
165021
164897
164788
164718
164672
164632
164587
164533
164467
164389
164297
164187
164058
163907
163733
163535
163312
163066
162802
162528
164932
164852
164767
164709
164670
164633
164591
164538
164474
164396
164305
164196
164068
163919
163747
163551
163330
163088
162828
162559
164860
164812
164749
164704
164671
164637
164596
164545
164482
164406
164315
164208
164082
163935
163766
163573
163356
163118
162864
162602
164801
164764
164722
164692
164667
164637
164598
164547
164485
164410
164321
164216
164092
163947
163781
163593
163381
163149
162903
162651
164734
164705
164686
164679
164668
164644
164608
164559
164499
164425
164337
164232
164110
163968
163804
163619
163413
163188
162950
162708
164640
164630
164641
164648
164638
164613
164578
164533
164476
164407
164324
164224
164106
163969
163812
163634
163435
163219
162992
162763
164460
164576
164687
164729
164722
164691
164648
164595
164532
164456
164368
164264
164144
164006
163849
163673
163478
163267
163048
162832
163959
164204
164392
164491
164534
164546
164537
164511
164468
164409
164334
164242
164132
164002
163854
163685
163498
163296
163088
162884
165114
165013
164912
164844
164792
164743
164690
164631
164564
164487
164399
164296
164178
164043
163890
163719
163532
163331
163125
162925
165258
165160
165065
165008
164972
164943
164916
164889
164861
164832
164800
164764
164726
164684
164641
164597
164555
164519
164496
164496
164102
164350
164545
164655
164714
164746
164763
164769
164766
164754
164736
164711
164681
164646
164606
164565
164524
164488
164463
164460
164604
164723
164840
164894
164903
164892
164875
164855
164830
164803
164771
164735
164696
164652
164606
164558
164510
164467
164434
164421
164785
164777
164796
164814
164820
164816
164807
164794
164777
164756
164730
164698
164662
164620
164575
164526
164476
164429
164391
164371
164879
164853
164844
164849
164852
164849
164838
164823
164802
164777
164747
164711
164671
164625
164575
164521
164466
164412
164367
164337
164945
164914
164882
164864
164854
164844
164831
164813
164792
164766
164736
164700
164659
164613
164561
164506
164448
164391
164340
164303
165002
164965
164915
164880
164860
164847
164833
164815
164793
164767
164736
164699
164657
164609
164556
164498
164437
164376
164321
164278
165060
165010
164941
164892
164865
164848
164832
164813
164790
164763
164731
164694
164651
164602
164547
164488
164425
164362
164304
164256
165138
165049
164954
164895
164865
164847
164830
164811
164787
164760
164728
164690
164647
164598
164542
164482
164418
164354
164293
164242
165248
165093
164967
164898
164866
164847
164829
164809
164785
164758
164726
164688
164644
164595
164539
164479
164414
164349
164287
164234
165248
165093
164967
164898
164866
164847
164829
164809
164785
164758
164726
164688
164644
164595
164539
164479
164414
164349
164287
164234
165138
165049
164954
164895
164865
164847
164830
164811
164787
164760
164728
164690
164647
164598
164542
164482
164418
164354
164293
164242
165060
165010
164941
164892
164865
164848
164832
164813
164790
164763
164731
164694
164651
164602
164547
164488
164425
164362
164304
164256
165002
164965
164915
164880
164860
164847
164833
164815
164793
164767
164736
164699
164657
164609
164556
164498
164437
164376
164321
164278
164945
164914
164882
164864
164854
164844
164831
164813
164792
164766
164736
164700
164659
164613
164561
164506
164448
164391
164340
164303
164879
164853
164843
164849
164852
164849
164838
164823
164802
164777
164747
164711
164671
164625
164575
164521
164466
164412
164367
164337
164785
164777
164796
164814
164820
164816
164807
164794
164777
164756
164730
164698
164662
164620
164575
164526
164476
164429
164391
164371
164604
164723
164840
164894
164903
164892
164875
164855
164830
164803
164771
164735
164696
164652
164606
164558
164510
164467
164434
164421
164102
164350
164545
164655
164714
164746
164763
164769
164766
164754
164736
164711
164681
164646
164606
164565
164524
164488
164463
164460
165258
165160
165065
165008
164972
164943
164916
164889
164861
164832
164800
164764
164726
164684
164641
164597
164555
164519
164496
164496
165405
165309
165221
165174
165153
165145
165143
165148
165159
165176
165199
165229
165267
165315
165375
165449
165540
165653
165791
165965
164249
164499
164701
164821
164896
164949
164991
165029
165064
165099
165137
165177
165224
165278
165342
165419
165512
165625
165764
165934
164753
164874
164997
165061
165085
165095
165104
165115
165130
165149
165173
165203
165241
165288
165345
165417
165504
165611
165743
165907
164934
164929
164953
164982
165003
165020
165037
165056
165079
165105
165135
165170
165211
165261
165320
165392
165479
165585
165715
165875
165030
165006
165002
165018
165037
165054
165070
165087
165106
165129
165155
165187
165225
165271
165328
165396
165480
165582
165707
165861
165098
165069
165043
165035
165041
165052
165065
165081
165099
165122
165149
165181
165220
165267
165323
165392
165475
165576
165699
165849
165157
165122
165078
165053
165050
165057
165070
165085
165104
165127
165154
165186
165225
165271
165328
165396
165478
165578
165699
165846
165218
165169
165106
165067
165057
165061
165073
165087
165105
165128
165155
165187
165226
165273
165329
165398
165480
165579
165699
165844
165299
165212
165122
165074
165060
165064
165074
165089
165107
165129
165157
165190
165229
165276
165333
165401
165483
165582
165702
165845
165412
165258
165137
165080
165064
165066
165076
165090
165108
165130