/*--------------------------------*- C++ -*----------------------------------*\
  =========                 |
  \\      /  F ield         | OpenFOAM: The Open Source CFD Toolbox
   \\    /   O peration     | Website:  https://openfoam.org
    \\  /    A nd           | Version:  10
     \\/     M anipulation  |
\*---------------------------------------------------------------------------*/
FoamFile
{
    format      ascii;
    class       surfaceScalarField;
    location    "150";
    object      phi;
}
// * * * * * * * * * * * * * * * * * * * * * * * * * * * * * * * * * * * * * //

dimensions      [1 0 -1 0 0 0 0];

internalField   nonuniform List<scalar> 
324400
(
0.00100218
-3.59748e-06
-4.2093e-06
0.00100283
3.0252e-07
-9.46629e-07
0.00100306
8.23033e-07
-1.05097e-06
0.00100316
1.20294e-06
-1.31259e-06
0.00100329
1.53245e-06
-1.66108e-06
0.00100374
1.74182e-06
-2.1907e-06
0.00100481
1.84593e-06
-2.9127e-06
0.00100674
1.88718e-06
-3.81333e-06
0.00100974
1.89494e-06
-4.89779e-06
0.00101405
1.8841e-06
-6.19658e-06
0.00101995
1.86271e-06
-7.75973e-06
0.00102777
1.83684e-06
-9.65722e-06
0.00103794
1.81248e-06
-1.1987e-05
0.00105104
1.79654e-06
-1.48914e-05
0.00106783
1.79817e-06
-1.85885e-05
0.00108943
1.83072e-06
-2.34345e-05
0.00111758
1.91532e-06
-3.00583e-05
0.00115516
2.08794e-06
-3.96747e-05
0.00120763
2.43914e-06
-5.49027e-05
2.83376e-06
-8.14258e-05
0.00128622
0.000996211
-2.13157e-06
-1.07393e-05
0.00100172
6.1215e-07
-5.82043e-06
0.00100579
1.6263e-06
-4.87506e-06
0.00100976
1.94755e-06
-4.70767e-06
0.00101389
2.18725e-06
-4.79147e-06
0.00101837
2.37846e-06
-5.1089e-06
0.00102336
2.50912e-06
-5.65645e-06
0.00102906
2.60028e-06
-6.41704e-06
0.00103567
2.67571e-06
-7.38987e-06
0.0010434
2.74954e-06
-8.59633e-06
0.00105251
2.83043e-06
-1.00784e-05
0.00106332
2.92667e-06
-1.18996e-05
0.00107624
3.04836e-06
-1.41511e-05
0.0010918
3.20873e-06
-1.69668e-05
0.00111072
3.42578e-06
-2.05533e-05
0.00113407
3.72492e-06
-2.52478e-05
0.00116349
4.14302e-06
-3.16472e-05
0.00120175
4.73569e-06
-4.09059e-05
0.00125416
5.60009e-06
-5.55712e-05
6.75682e-06
-8.10211e-05
0.00133126
0.000996473
2.16844e-08
-1.08001e-05
0.00100332
7.13009e-07
-6.94451e-06
0.00100965
1.30666e-06
-6.01659e-06
0.00101576
1.57113e-06
-5.72828e-06
0.00102191
1.73125e-06
-5.69116e-06
0.00102827
1.88298e-06
-5.86635e-06
0.00103501
2.03002e-06
-6.25927e-06
0.0010423
2.17362e-06
-6.86925e-06
0.00105036
2.32433e-06
-7.70304e-06
0.0010594
2.49355e-06
-8.78353e-06
0.00106969
2.69143e-06
-1.01512e-05
0.00108155
2.92911e-06
-1.18663e-05
0.0010954
3.2209e-06
-1.40168e-05
0.00111175
3.58599e-06
-1.67328e-05
0.00113134
4.05027e-06
-2.02149e-05
0.00115521
4.64916e-06
-2.47923e-05
0.00118497
5.43201e-06
-3.10498e-05
0.00122336
6.46926e-06
-4.01221e-05
0.00127563
7.87077e-06
-5.4541e-05
9.70762e-06
-7.96253e-05
0.0013523
0.000998221
2.86491e-07
-1.06971e-05
0.00100552
6.94648e-07
-7.27817e-06
0.0010123
1.18749e-06
-6.65858e-06
0.00101885
1.59613e-06
-6.58197e-06
0.00102542
1.92144e-06
-6.75237e-06
0.0010322
2.21021e-06
-7.11644e-06
0.00103941
2.48038e-06
-7.65782e-06
0.00104722
2.73864e-06
-8.37213e-06
0.00105582
2.99548e-06
-9.26956e-06
0.00106542
3.26463e-06
-1.0377e-05
0.00107629
3.5609e-06
-1.17385e-05
0.00108874
3.90055e-06
-1.34177e-05
0.00110316
4.30309e-06
-1.55044e-05
0.00112008
4.79312e-06
-1.81297e-05
0.00114023
5.4023e-06
-2.14935e-05
0.00116463
6.17207e-06
-2.59231e-05
0.0011949
7.15725e-06
-3.19988e-05
0.00123379
8.43045e-06
-4.08476e-05
0.00128656
1.00881e-05
-5.49945e-05
1.21865e-05
-7.97504e-05
0.00136384
0.000998166
3.31624e-07
-1.05092e-05
0.00100524
6.9828e-07
-7.07735e-06
0.00101182
1.07445e-06
-6.4672e-06
0.00101833
1.40716e-06
-6.31952e-06
0.00102496
1.68223e-06
-6.38955e-06
0.0010319
1.92276e-06
-6.65568e-06
0.00103934
2.15004e-06
-7.10407e-06
0.00104743
2.37704e-06
-7.72983e-06
0.00105635
2.61524e-06
-8.54471e-06
0.00106632
2.87756e-06
-9.57656e-06
0.00107757
3.17835e-06
-1.08689e-05
0.00109042
3.53386e-06
-1.24833e-05
0.00110526
3.96354e-06
-1.45075e-05
0.00112264
4.49186e-06
-1.70694e-05
0.00114325
5.15003e-06
-2.03659e-05
0.00116817
5.97832e-06
-2.47203e-05
0.00119901
7.02864e-06
-3.07093e-05
0.00123853
8.3673e-06
-3.94553e-05
0.00129202
1.00775e-05
-5.34791e-05
1.22236e-05
-7.80898e-05
0.00137007
0.000998065
2.90693e-07
-1.0421e-05
0.00100514
5.99646e-07
-6.97793e-06
0.00101175
8.88469e-07
-6.41823e-06
0.00101832
1.15139e-06
-6.31427e-06
0.00102503
1.39015e-06
-6.42047e-06
0.00103207
1.61612e-06
-6.72917e-06
0.0010396
1.84083e-06
-7.22602e-06
0.0010478
2.07274e-06
-7.89964e-06
0.00105686
2.31978e-06
-8.75682e-06
0.00106697
2.59145e-06
-9.82231e-06
0.00107838
2.89933e-06
-1.11372e-05
0.00109142
3.25748e-06
-1.27614e-05
0.00110648
3.68332e-06
-1.47807e-05
0.0011241
4.19878e-06
-1.73214e-05
0.00114499
4.83174e-06
-2.05788e-05
0.00117023
5.61751e-06
-2.48744e-05
0.00120144
6.60031e-06
-3.07825e-05
0.0012414
7.83405e-06
-3.94222e-05
0.0012954
9.37936e-06
-5.33106e-05
1.1286e-05
-7.7766e-05
0.00137411
0.000997959
2.25668e-07
-1.03773e-05
0.00100501
4.65407e-07
-6.91568e-06
0.00101158
6.83918e-07
-6.36774e-06
0.00101812
8.82435e-07
-6.27107e-06
0.00102481
1.06738e-06
-6.36648e-06
0.00103183
1.2463e-06
-6.65247e-06
0.00103937
1.42572e-06
-7.12054e-06
0.00104759
1.61152e-06
-7.76102e-06
0.00105668
1.81025e-06
-8.58148e-06
0.00106685
2.03006e-06
-9.60774e-06
0.00107835
2.28081e-06
-1.08819e-05
0.0010915
2.57439e-06
-1.24642e-05
0.0011067
2.92532e-06
-1.44405e-05
0.00112448
3.35156e-06
-1.69367e-05
0.00114559
3.87551e-06
-2.0147e-05
0.00117107
4.52498e-06
-2.43919e-05
0.00120258
5.33398e-06
-3.02439e-05
0.00124289
6.34279e-06
-3.88196e-05
0.00129731
7.59437e-06
-5.2633e-05
9.1359e-06
-7.70104e-05
0.00137647
0.000997877
1.52581e-07
-1.03542e-05
0.00100491
3.15287e-07
-6.87861e-06
0.00101146
4.62857e-07
-6.33464e-06
0.00101799
5.96097e-07
-6.24676e-06
0.00102469
7.21054e-07
-6.34567e-06
0.00103172
8.44041e-07
-6.63103e-06
0.00103927
9.69626e-07
-7.09822e-06
0.00104752
1.10165e-06
-7.73899e-06
0.00105665
1.24457e-06
-8.56047e-06
0.00106686
1.40397e-06
-9.58769e-06
0.00107842
1.58662e-06
-1.08619e-05
0.00109164
1.80066e-06
-1.24425e-05
0.00110692
2.05602e-06
-1.44144e-05
0.00112481
2.36504e-06
-1.69023e-05
0.00114604
2.74298e-06
-2.00996e-05
0.00117168
3.20866e-06
-2.43254e-05
0.00120338
3.78466e-06
-3.01509e-05
0.00124392
4.49702e-06
-3.86908e-05
0.0012986
5.37079e-06
-5.24566e-05
6.44205e-06
-7.67865e-05
0.00137808
0.000997822
7.67766e-08
-1.0342e-05
0.00100484
1.5886e-07
-6.85792e-06
0.00101138
2.33358e-07
-6.31466e-06
0.00101791
3.00476e-07
-6.2316e-06
0.0010246
3.63526e-07
-6.3327e-06
0.00103163
4.2607e-07
-6.61599e-06
0.00103919
4.90482e-07
-7.07828e-06
0.00104745
5.58546e-07
-7.71232e-06
0.00105658
6.32378e-07
-8.52535e-06
0.00106681
7.14762e-07
-9.54221e-06
0.0010784
8.09154e-07
-1.08042e-05
0.00109165
9.19753e-07
-1.23708e-05
0.00110698
1.05169e-06
-1.43269e-05
0.00112493
1.21132e-06
-1.67974e-05
0.00114624
1.40648e-06
-1.99754e-05
0.00117199
1.64669e-06
-2.41798e-05
0.00120381
1.94325e-06
-2.99816e-05
0.00124449
2.30901e-06
-3.84945e-05
0.00129934
2.75501e-06
-5.22285e-05
3.30822e-06
-7.65328e-05
0.001379
0.000997794
1.77107e-11
-1.03366e-05
0.0010048
1.57511e-11
-6.84841e-06
0.00101134
3.04286e-11
-6.30505e-06
0.00101786
4.87335e-11
-6.22417e-06
0.00102456
6.52838e-11
-6.3267e-06
0.00103159
8.04334e-11
-6.60965e-06
0.00103915
9.50227e-11
-7.07046e-06
0.00104741
1.07797e-10
-7.70264e-06
0.00105656
1.17736e-10
-8.51364e-06
0.0010668
1.25889e-10
-9.52831e-06
0.0010784
1.34014e-10
-1.07879e-05
0.00109167
1.43016e-10
-1.23517e-05
0.00110703
1.53033e-10
-1.43046e-05
0.00112501
1.64098e-10
-1.67713e-05
0.00114636
1.76205e-10
-1.99446e-05
0.00117215
1.89111e-10
-2.41431e-05
0.00120403
2.02469e-10
-2.99373e-05
0.00124478
2.16234e-10
-3.84405e-05
0.0012997
2.30187e-10
-5.21616e-05
2.46747e-10
-7.64606e-05
0.00137947
0.000997794
-7.67404e-08
-1.03366e-05
0.0010048
-1.58828e-07
-6.84841e-06
0.00101134
-2.33296e-07
-6.30505e-06
0.00101786
-3.00379e-07
-6.22416e-06
0.00102456
-3.63395e-07
-6.3267e-06
0.00103159
-4.25909e-07
-6.60965e-06
0.00103915
-4.90292e-07
-7.07046e-06
0.00104741
-5.58331e-07
-7.70264e-06
0.00105656
-6.32143e-07
-8.51364e-06
0.0010668
-7.1451e-07
-9.52831e-06
0.0010784
-8.08886e-07
-1.07879e-05
0.00109167
-9.19466e-07
-1.23517e-05
0.00110703
-1.05139e-06
-1.43046e-05
0.00112501
-1.211e-06
-1.67713e-05
0.00114636
-1.40613e-06
-1.99446e-05
0.00117215
-1.64632e-06
-2.41431e-05
0.00120403
-1.94285e-06
-2.99373e-05
0.00124478
-2.30858e-06
-3.84405e-05
0.0012997
-2.75455e-06
-5.21616e-05
-3.30773e-06
-7.64606e-05
0.00137947
0.000997822
-1.52547e-07
-1.0342e-05
0.00100484
-3.15258e-07
-6.85791e-06
0.00101138
-4.628e-07
-6.31466e-06
0.00101791
-5.96003e-07
-6.2316e-06
0.0010246
-7.20925e-07
-6.3327e-06
0.00103163
-8.4388e-07
-6.61599e-06
0.00103919
-9.69435e-07
-7.07827e-06
0.00104745
-1.10144e-06
-7.71232e-06
0.00105658
-1.24434e-06
-8.52534e-06
0.00106681
-1.40372e-06
-9.54221e-06
0.0010784
-1.58635e-06
-1.08042e-05
0.00109165
-1.80037e-06
-1.23708e-05
0.00110698
-2.05572e-06
-1.43269e-05
0.00112493
-2.36471e-06
-1.67974e-05
0.00114624
-2.74263e-06
-1.99754e-05
0.00117199
-3.20829e-06
-2.41798e-05
0.00120381
-3.78426e-06
-2.99815e-05
0.00124449
-4.49659e-06
-3.84945e-05
0.00129934
-5.37034e-06
-5.22285e-05
-6.44156e-06
-7.65328e-05
0.001379
0.000997877
-2.25636e-07
-1.03542e-05
0.00100491
-4.6538e-07
-6.87861e-06
0.00101146
-6.83864e-07
-6.33464e-06
0.00101799
-8.82346e-07
-6.24675e-06
0.00102469
-1.06725e-06
-6.34567e-06
0.00103172
-1.24614e-06
-6.63102e-06
0.00103927
-1.42553e-06
-7.09821e-06
0.00104752
-1.6113e-06
-7.73898e-06
0.00105665
-1.81002e-06
-8.56047e-06
0.00106686
-2.02981e-06
-9.58769e-06
0.00107842
-2.28054e-06
-1.08619e-05
0.00109164
-2.57411e-06
-1.24425e-05
0.00110692
-2.92502e-06
-1.44144e-05
0.00112481
-3.35124e-06
-1.69023e-05
0.00114604
-3.87516e-06
-2.00996e-05
0.00117168
-4.52462e-06
-2.43254e-05
0.00120338
-5.33359e-06
-3.01508e-05
0.00124392
-6.34238e-06
-3.86908e-05
0.0012986
-7.59393e-06
-5.24566e-05
-9.13542e-06
-7.67865e-05
0.00137808
0.000997959
-2.90667e-07
-1.03773e-05
0.00100501
-5.99624e-07
-6.91568e-06
0.00101158
-8.88422e-07
-6.36774e-06
0.00101812
-1.15131e-06
-6.27107e-06
0.00102481
-1.39003e-06
-6.36647e-06
0.00103183
-1.61597e-06
-6.65245e-06
0.00103937
-1.84064e-06
-7.12052e-06
0.00104759
-2.07253e-06
-7.76101e-06
0.00105668
-2.31956e-06
-8.58147e-06
0.00106685
-2.59122e-06
-9.60773e-06
0.00107835
-2.89908e-06
-1.08819e-05
0.0010915
-3.25721e-06
-1.24642e-05
0.0011067
-3.68302e-06
-1.44405e-05
0.00112448
-4.19847e-06
-1.69366e-05
0.00114559
-4.83141e-06
-2.0147e-05
0.00117107
-5.61716e-06
-2.43919e-05
0.00120258
-6.59993e-06
-3.02439e-05
0.00124289
-7.83365e-06
-3.88196e-05
0.00129731
-9.37894e-06
-5.2633e-05
-1.12855e-05
-7.70104e-05
0.00137647
0.000998065
-3.31602e-07
-1.0421e-05
0.00100514
-6.98263e-07
-6.97793e-06
0.00101175
-1.07441e-06
-6.41822e-06
0.00101832
-1.40709e-06
-6.31426e-06
0.00102503
-1.68212e-06
-6.42045e-06
0.00103207
-1.9226e-06
-6.72914e-06
0.0010396
-2.14986e-06
-7.22599e-06
0.0010478
-2.37684e-06
-7.89962e-06
0.00105686
-2.61503e-06
-8.75681e-06
0.00106697
-2.87733e-06
-9.8223e-06
0.00107838
-3.17811e-06
-1.11372e-05
0.00109142
-3.53359e-06
-1.27614e-05
0.00110648
-3.96327e-06
-1.47807e-05
0.0011241
-4.49156e-06
-1.73214e-05
0.00114499
-5.14972e-06
-2.05788e-05
0.00117023
-5.97799e-06
-2.48744e-05
0.00120144
-7.02829e-06
-3.07825e-05
0.0012414
-8.36693e-06
-3.94222e-05
0.0012954
-1.00771e-05
-5.33106e-05
-1.22232e-05
-7.7766e-05
0.00137411
0.000998166
-2.86478e-07
-1.05092e-05
0.00100524
-6.9464e-07
-7.07735e-06
0.00101182
-1.18747e-06
-6.4672e-06
0.00101833
-1.59608e-06
-6.31951e-06
0.00102496
-1.92134e-06
-6.38952e-06
0.0010319
-2.21006e-06
-6.65564e-06
0.00103934
-2.4802e-06
-7.10403e-06
0.00104743
-2.73846e-06
-7.72979e-06
0.00105635
-2.99529e-06
-8.54468e-06
0.00106632
-3.26443e-06
-9.57655e-06
0.00107757
-3.56068e-06
-1.08688e-05
0.00109042
-3.90032e-06
-1.24833e-05
0.00110526
-4.30285e-06
-1.45075e-05
0.00112264
-4.79285e-06
-1.70694e-05
0.00114325
-5.40202e-06
-2.03659e-05
0.00116817
-6.17177e-06
-2.47203e-05
0.00119901
-7.15694e-06
-3.07093e-05
0.00123853
-8.43012e-06
-3.94553e-05
0.00129202
-1.00878e-05
-5.34791e-05
-1.21861e-05
-7.80898e-05
0.00137007
0.000998221
-2.16826e-08
-1.06971e-05
0.00100552
-7.13011e-07
-7.27817e-06
0.0010123
-1.30666e-06
-6.65858e-06
0.00101885
-1.5711e-06
-6.58195e-06
0.00102541
-1.73115e-06
-6.75234e-06
0.0010322
-1.88283e-06
-7.11639e-06
0.00103941
-2.02986e-06
-7.65778e-06
0.00104722
-2.17347e-06
-8.3721e-06
0.00105582
-2.32417e-06
-9.26954e-06
0.00106542
-2.49337e-06
-1.0377e-05
0.00107629
-2.69124e-06
-1.17385e-05
0.00108874
-2.9289e-06
-1.34176e-05
0.00110316
-3.22069e-06
-1.55044e-05
0.00112008
-3.58576e-06
-1.81296e-05
0.00114023
-4.05003e-06
-2.14935e-05
0.00116463
-4.64891e-06
-2.59231e-05
0.0011949
-5.43175e-06
-3.19988e-05
0.00123379
-6.46898e-06
-4.08476e-05
0.00128656
-7.87047e-06
-5.49945e-05
-9.70731e-06
-7.97504e-05
0.00136384
0.000996473
2.13155e-06
-1.08001e-05
0.00100332
-6.12168e-07
-6.94451e-06
0.00100965
-1.62634e-06
-6.0166e-06
0.00101576
-1.94756e-06
-5.72826e-06
0.00102191
-2.18719e-06
-5.6911e-06
0.00102827
-2.37834e-06
-5.86626e-06
0.00103501
-2.50899e-06
-6.25921e-06
0.0010423
-2.60017e-06
-6.86921e-06
0.00105036
-2.6756e-06
-7.70301e-06
0.0010594
-2.74942e-06
-8.78349e-06
0.00106969
-2.83029e-06
-1.01511e-05
0.00108155
-2.92652e-06
-1.18662e-05
0.0010954
-3.04821e-06
-1.40168e-05
0.00111175
-3.20856e-06
-1.67327e-05
0.00113134
-3.42561e-06
-2.02148e-05
0.00115521
-3.72475e-06
-2.47923e-05
0.00118497
-4.14284e-06
-3.10498e-05
0.00122336
-4.7355e-06
-4.01221e-05
0.00127563
-5.59989e-06
-5.4541e-05
-6.7566e-06
-7.96253e-05
0.00135231
0.000996211
3.59746e-06
-1.07393e-05
0.00100172
-3.02563e-07
-5.82044e-06
0.00100579
-8.23104e-07
-4.87511e-06
0.00100976
-1.20301e-06
-4.70768e-06
0.00101389
-1.53247e-06
-4.79139e-06
0.00101837
-1.7418e-06
-5.10877e-06
0.00102336
-1.84591e-06
-5.65635e-06
0.00102906
-1.88717e-06
-6.41698e-06
0.00103567
-1.89494e-06
-7.38981e-06
0.0010434
-1.88409e-06
-8.59626e-06
0.00105251
-1.86269e-06
-1.00784e-05
0.00106332
-1.83681e-06
-1.18996e-05
0.00107624
-1.81243e-06
-1.4151e-05
0.0010918
-1.79649e-06
-1.69668e-05
0.00111072
-1.79812e-06
-2.05532e-05
0.00113407
-1.83067e-06
-2.52478e-05
0.00116349
-1.91525e-06
-3.16472e-05
0.00120175
-2.08787e-06
-4.09059e-05
0.00125416
-2.43905e-06
-5.55712e-05
-2.83366e-06
-8.10211e-05
0.00133126
0.00100218
-4.20932e-06
0.00100283
-9.46654e-07
0.00100306
-1.05105e-06
0.00100316
-1.31263e-06
0.00100329
-1.66102e-06
0.00100374
-2.19059e-06
0.00100481
-2.91262e-06
0.00100674
-3.81329e-06
0.00100974
-4.89776e-06
0.00101405
-6.19653e-06
0.00101995
-7.75966e-06
0.00102777
-9.65715e-06
0.00103794
-1.19869e-05
0.00105104
-1.48914e-05
0.00106783
-1.85885e-05
0.00108943
-2.34344e-05
0.00111758
-3.00582e-05
0.00115516
-3.96747e-05
0.00120763
-5.49026e-05
-8.14258e-05
0.00128622
0.000996287
-1.01291e-05
-3.24572e-06
0.00100163
-4.55381e-06
-1.73902e-06
0.00100549
-2.93473e-06
-1.97472e-06
0.0010092
-2.06052e-06
-2.95574e-06
0.00101303
-1.38359e-06
-4.11326e-06
0.00101716
-8.64414e-07
-5.45705e-06
0.00102177
-4.74546e-07
-7.048e-06
0.00102705
-1.68371e-07
-8.92267e-06
0.00103319
8.92798e-08
-1.11257e-05
0.0010404
3.22243e-07
-1.37257e-05
0.00104891
5.47993e-07
-1.68216e-05
0.00105902
7.79672e-07
-2.05486e-05
0.00107109
1.02913e-06
-2.50864e-05
0.00108558
1.30927e-06
-3.06857e-05
0.00110306
1.63594e-06
-3.77104e-05
0.00112431
2.03031e-06
-4.67125e-05
0.0011503
2.52189e-06
-5.85641e-05
0.00118216
3.15466e-06
-7.46957e-05
0.00122083
3.97639e-06
-9.75419e-05
4.81551e-06
-0.000130764
0.00126535
0.00113178
-2.26391e-06
-3.33848e-06
0.00112511
-7.33501e-07
-2.96264e-06
0.00112054
9.10415e-08
-3.33857e-06
0.00111768
4.01218e-07
-4.30431e-06
0.0011164
5.96552e-07
-5.49335e-06
0.00111651
7.70768e-07
-6.8505e-06
0.00111786
9.28587e-07
-8.41615e-06
0.00112043
1.08075e-06
-1.02332e-05
0.00112424
1.24222e-06
-1.23512e-05
0.00112938
1.42367e-06
-1.48408e-05
0.00113602
1.634e-06
-1.77976e-05
0.00114436
1.88308e-06
-2.13465e-05
0.00115471
2.18305e-06
-2.56564e-05
0.00116747
2.54986e-06
-3.09631e-05
0.00118315
3.00529e-06
-3.76092e-05
0.00120247
3.57934e-06
-4.61128e-05
0.00122633
4.31326e-06
-5.72935e-05
0.00125581
5.26556e-06
-7.25032e-05
0.0012918
6.501e-06
-9.4087e-05
7.95458e-06
-0.000125323
0.00133297
0.00114305
2.11493e-07
-8.30087e-06
0.00114211
5.92638e-07
-7.32766e-06
0.00114211
1.08124e-06
-7.00624e-06
0.00114278
1.4172e-06
-7.42256e-06
0.00114419
1.64437e-06
-8.14541e-06
0.00114634
1.83443e-06
-9.07713e-06
0.00114925
2.01051e-06
-1.02497e-05
0.00115299
2.18221e-06
-1.17102e-05
0.00115767
2.36195e-06
-1.35091e-05
0.00116346
2.56321e-06
-1.57106e-05
0.00117055
2.79892e-06
-1.84002e-05
0.00117917
3.08304e-06
-2.16942e-05
0.00118966
3.43249e-06
-2.57528e-05
0.00120241
3.86865e-06
-3.08019e-05
0.00121795
4.41911e-06
-3.71705e-05
0.00123698
5.1201e-06
-4.53581e-05
0.00126038
6.01978e-06
-5.61598e-05
0.00128924
7.18289e-06
-7.08922e-05
0.00132437
8.68964e-06
-9.18595e-05
1.0535e-05
-0.000122177
0.00136434
0.00114515
3.99162e-07
-8.22274e-06
0.00114596
7.42854e-07
-8.24037e-06
0.00114754
1.10364e-06
-8.25716e-06
0.00114977
1.43671e-06
-8.8395e-06
0.00115266
1.70329e-06
-9.69938e-06
0.00115619
1.92354e-06
-1.07329e-05
0.00116038
2.12296e-06
-1.19606e-05
0.0011653
2.31802e-06
-1.34317e-05
0.00117108
2.52277e-06
-1.52024e-05
0.00117785
2.75183e-06
-1.73416e-05
0.00118583
3.02045e-06
-1.99382e-05
0.00119526
3.3452e-06
-2.31105e-05
0.00120646
3.7456e-06
-2.70184e-05
0.00121984
4.24579e-06
-3.18852e-05
0.00123593
4.87637e-06
-3.80352e-05
0.00125541
5.67662e-06
-4.59612e-05
0.00127918
6.69726e-06
-5.64474e-05
0.0013083
8.00314e-06
-7.0793e-05
0.00134361
9.67205e-06
-9.12796e-05
1.17102e-05
-0.000120975
0.00138366
0.00114504
3.68038e-07
-7.87326e-06
0.00114614
7.07311e-07
-8.14028e-06
0.00114811
1.01037e-06
-8.35279e-06
0.00115091
1.29948e-06
-8.98021e-06
0.00115449
1.56462e-06
-9.82839e-06
0.00115878
1.80606e-06
-1.08293e-05
0.00116377
2.03548e-06
-1.20065e-05
0.00116951
2.26509e-06
-1.34113e-05
0.00117608
2.50611e-06
-1.51042e-05
0.00118364
2.77067e-06
-1.71572e-05
0.00119238
3.07265e-06
-1.96609e-05
0.00120255
3.42831e-06
-2.27327e-05
0.00121446
3.85733e-06
-2.65302e-05
0.00122853
4.38412e-06
-3.12735e-05
0.00124528
5.03942e-06
-3.72825e-05
0.00126542
5.86213e-06
-4.5044e-05
0.00128984
6.9014e-06
-5.53345e-05
0.00131961
8.21851e-06
-6.9442e-05
0.00135555
9.88585e-06
-8.96336e-05
1.19215e-05
-0.000118961
0.00139621
0.00114485
2.96958e-07
-7.69866e-06
0.00114599
5.837e-07
-7.99406e-06
0.00114808
8.28876e-07
-8.32393e-06
0.00115103
1.05494e-06
-9.02213e-06
0.00115481
1.2733e-06
-9.9102e-06
0.00115935
1.48543e-06
-1.09485e-05
0.00116463
1.69504e-06
-1.21641e-05
0.00117069
1.90925e-06
-1.36027e-05
0.00117762
2.13676e-06
-1.53205e-05
0.00118557
2.38768e-06
-1.7387e-05
0.00119472
2.67394e-06
-1.98902e-05
0.00120532
3.00994e-06
-2.29451e-05
0.00121769
3.41334e-06
-2.67072e-05
0.00123224
3.90608e-06
-3.13936e-05
0.00124951
4.51568e-06
-3.73215e-05
0.0012702
5.27662e-06
-4.49736e-05
0.00129521
6.23175e-06
-5.51215e-05
0.00132561
7.43326e-06
-6.90459e-05
0.00136226
8.94021e-06
-8.90057e-05
1.07712e-05
-0.000118053
0.00140369
0.0011447
2.21327e-07
-7.60971e-06
0.00114581
4.4141e-07
-7.88454e-06
0.0011479
6.3108e-07
-8.25828e-06
0.00115087
8.01757e-07
-8.98925e-06
0.00115469
9.68379e-07
-9.88157e-06
0.00115929
1.13664e-06
-1.09092e-05
0.00116467
1.30858e-06
-1.21075e-05
0.00117085
1.48792e-06
-1.35237e-05
0.00117794
1.6807e-06
-1.52136e-05
0.00118607
1.89455e-06
-1.72468e-05
0.00119544
2.13868e-06
-1.97118e-05
0.00120628
2.4243e-06
-2.27234e-05
0.00121893
2.76531e-06
-2.64362e-05
0.00123378
3.17913e-06
-3.10664e-05
0.00125139
3.68758e-06
-3.69288e-05
0.00127246
4.31789e-06
-4.45042e-05
0.00129791
5.10356e-06
-5.45605e-05
0.00132881
6.08502e-06
-6.8374e-05
0.00136601
7.30744e-06
-8.81975e-05
8.79231e-06
-0.000117085
0.00140806
0.00114459
1.46468e-07
-7.56193e-06
0.00114567
2.94668e-07
-7.81521e-06
0.00114775
4.2416e-07
-8.2052e-06
0.00115072
5.39135e-07
-8.95814e-06
0.00115455
6.5052e-07
-9.85931e-06
0.00115918
7.6474e-07
-1.08858e-05
0.00116459
8.8382e-07
-1.20799e-05
0.00117082
1.00973e-06
-1.34911e-05
0.00117797
1.14615e-06
-1.51752e-05
0.00118618
1.29828e-06
-1.72011e-05
0.00119564
1.47245e-06
-1.96565e-05
0.0012066
1.67643e-06
-2.26556e-05
0.00121938
1.91981e-06
-2.63519e-05
0.0012344
2.21463e-06
-3.09602e-05
0.00125221
2.57593e-06
-3.67941e-05
0.00127351
3.02233e-06
-4.43324e-05
0.00129923
3.57657e-06
-5.4341e-05
0.00133045
4.26573e-06
-6.80934e-05
0.00136802
5.11916e-06
-8.78393e-05
6.15502e-06
-0.000116638
0.00141051
0.00114451
7.28447e-08
-7.53681e-06
0.00114558
1.47219e-07
-7.77541e-06
0.00114765
2.12891e-07
-8.17033e-06
0.00115062
2.70968e-07
-8.93532e-06
0.00115445
3.26865e-07
-9.84263e-06
0.00115908
3.84545e-07
-1.08676e-05
0.0011645
4.45399e-07
-1.20559e-05
0.00117075
5.10325e-07
-1.34591e-05
0.00117792
5.81056e-07
-1.5133e-05
0.00118616
6.60192e-07
-1.71464e-05
0.00119567
7.50982e-07
-1.9587e-05
0.00120668
8.57368e-07
-2.2569e-05
0.00121954
9.84233e-07
-2.62456e-05
0.00123465
1.13768e-06
-3.08316e-05
0.00125257
1.32531e-06
-3.66402e-05
0.001274
1.55654e-06
-4.41497e-05
0.00129988
1.84275e-06
-5.41253e-05
0.00133129
2.19755e-06
-6.78396e-05
0.00136909
2.63529e-06
-8.75407e-05
3.16907e-06
-0.000116293
0.00141184
0.00114448
1.6093e-11
-7.52593e-06
0.00114554
1.76533e-11
-7.75738e-06
0.0011476
3.14249e-11
-8.15337e-06
0.00115057
4.90861e-11
-8.92361e-06
0.0011544
6.39222e-11
-9.83428e-06
0.00115904
7.70133e-11
-1.08591e-05
0.00116446
8.98318e-11
-1.2045e-05
0.00117071
1.01486e-10
-1.34448e-05
0.00117789
1.10686e-10
-1.51149e-05
0.00118615
1.17963e-10
-1.71237e-05
0.00119567
1.25196e-10
-1.95591e-05
0.00120671
1.3389e-10
-2.2535e-05
0.0012196
1.44401e-10
-2.62048e-05
0.00123474
1.56338e-10
-3.07829e-05
0.00125271
1.69201e-10
-3.65824e-05
0.0012742
1.82655e-10
-4.40811e-05
0.00130015
1.96557e-10
-5.4044e-05
0.00133165
2.11053e-10
-6.77431e-05
0.00136955
2.26359e-10
-8.74261e-05
2.44019e-10
-0.000116162
0.00141242
0.00114448
-7.28123e-08
-7.52593e-06
0.00114554
-1.47183e-07
-7.75738e-06
0.0011476
-2.12828e-07
-8.15337e-06
0.00115057
-2.7087e-07
-8.92361e-06
0.0011544
-3.26736e-07
-9.83428e-06
0.00115904
-3.8439e-07
-1.08591e-05
0.00116446
-4.45219e-07
-1.2045e-05
0.00117071
-5.10121e-07
-1.34448e-05
0.00117789
-5.80834e-07
-1.51149e-05
0.00118615
-6.59956e-07
-1.71237e-05
0.00119567
-7.5073e-07
-1.95591e-05
0.00120671
-8.571e-07
-2.2535e-05
0.0012196
-9.83944e-07
-2.62048e-05
0.00123474
-1.13737e-06
-3.07829e-05
0.00125271
-1.32498e-06
-3.65824e-05
0.0012742
-1.55617e-06
-4.40811e-05
0.00130015
-1.84236e-06
-5.4044e-05
0.00133165
-2.19713e-06
-6.77431e-05
0.00136955
-2.63484e-06
-8.74261e-05
-3.16858e-06
-0.000116162
0.00141242
0.00114451
-1.46437e-07
-7.5368e-06
0.00114558
-2.94634e-07
-7.77541e-06
0.00114765
-4.24099e-07
-8.17033e-06
0.00115062
-5.39039e-07
-8.93531e-06
0.00115445
-6.50393e-07
-9.84262e-06
0.00115908
-7.64585e-07
-1.08676e-05
0.0011645
-8.83638e-07
-1.20559e-05
0.00117075
-1.00952e-06
-1.3459e-05
0.00117792
-1.14593e-06
-1.5133e-05
0.00118616
-1.29804e-06
-1.71464e-05
0.00119567
-1.4722e-06
-1.9587e-05
0.00120668
-1.67616e-06
-2.2569e-05
0.00121954
-1.91952e-06
-2.62456e-05
0.00123465
-2.21432e-06
-3.08316e-05
0.00125257
-2.57559e-06
-3.66402e-05
0.001274
-3.02197e-06
-4.41497e-05
0.00129988
-3.57618e-06
-5.41253e-05
0.00133129
-4.26531e-06
-6.78396e-05
0.00136909
-5.11871e-06
-8.75407e-05
-6.15454e-06
-0.000116293
0.00141184
0.00114459
-2.21298e-07
-7.56192e-06
0.00114567
-4.41379e-07
-7.81521e-06
0.00114775
-6.31023e-07
-8.20519e-06
0.00115072
-8.01663e-07
-8.95813e-06
0.00115455
-9.68253e-07
-9.8593e-06
0.00115918
-1.13648e-06
-1.08858e-05
0.00116459
-1.30839e-06
-1.20799e-05
0.00117082
-1.48772e-06
-1.34911e-05
0.00117797
-1.68048e-06
-1.51752e-05
0.00118618
-1.89432e-06
-1.72011e-05
0.00119564
-2.13843e-06
-1.96565e-05
0.0012066
-2.42403e-06
-2.26556e-05
0.00121938
-2.76503e-06
-2.63519e-05
0.0012344
-3.17882e-06
-3.09602e-05
0.00125221
-3.68725e-06
-3.67941e-05
0.00127351
-4.31753e-06
-4.43324e-05
0.00129923
-5.10318e-06
-5.4341e-05
0.00133045
-6.08462e-06
-6.80934e-05
0.00136802
-7.307e-06
-8.78393e-05
-8.79184e-06
-0.000116638
0.00141051
0.0011447
-2.96934e-07
-7.60971e-06
0.00114581
-5.83675e-07
-7.88453e-06
0.0011479
-8.28826e-07
-8.25828e-06
0.00115087
-1.05485e-06
-8.98924e-06
0.00115469
-1.27317e-06
-9.88156e-06
0.00115929
-1.48527e-06
-1.09091e-05
0.00116467
-1.69486e-06
-1.21075e-05
0.00117085
-1.90905e-06
-1.35237e-05
0.00117794
-2.13655e-06
-1.52136e-05
0.00118607
-2.38745e-06
-1.72468e-05
0.00119544
-2.6737e-06
-1.97118e-05
0.00120628
-3.00968e-06
-2.27234e-05
0.00121893
-3.41306e-06
-2.64362e-05
0.00123378
-3.90578e-06
-3.10663e-05
0.00125139
-4.51536e-06
-3.69288e-05
0.00127246
-5.27628e-06
-4.45042e-05
0.00129791
-6.23139e-06
-5.45605e-05
0.00132881
-7.43287e-06
-6.83739e-05
0.00136601
-8.93979e-06
-8.81975e-05
-1.07708e-05
-0.000117085
0.00140806
0.00114485
-3.68018e-07
-7.69866e-06
0.00114599
-7.07292e-07
-7.99406e-06
0.00114808
-1.01033e-06
-8.32393e-06
0.00115103
-1.2994e-06
-9.02211e-06
0.00115481
-1.5645e-06
-9.91018e-06
0.00115935
-1.80589e-06
-1.09485e-05
0.00116463
-2.03529e-06
-1.2164e-05
0.00117069
-2.26489e-06
-1.36026e-05
0.00117762
-2.50591e-06
-1.53205e-05
0.00118557
-2.77046e-06
-1.7387e-05
0.00119472
-3.07242e-06
-1.98902e-05
0.00120532
-3.42806e-06
-2.29451e-05
0.00121769
-3.85706e-06
-2.67072e-05
0.00123224
-4.38383e-06
-3.13936e-05
0.00124951
-5.03911e-06
-3.73214e-05
0.0012702
-5.8618e-06
-4.49736e-05
0.00129521
-6.90106e-06
-5.51215e-05
0.00132561
-8.21814e-06
-6.90459e-05
0.00136226
-9.88546e-06
-8.90057e-05
-1.19211e-05
-0.000118053
0.00140369
0.00114504
-3.99151e-07
-7.87325e-06
0.00114614
-7.42845e-07
-8.14028e-06
0.00114811
-1.10362e-06
-8.35278e-06
0.00115091
-1.43665e-06
-8.98019e-06
0.00115449
-1.70318e-06
-9.82835e-06
0.00115878
-1.92337e-06
-1.08293e-05
0.00116377
-2.12277e-06
-1.20065e-05
0.00116951
-2.31784e-06
-1.34112e-05
0.00117608
-2.52259e-06
-1.51041e-05
0.00118364
-2.75164e-06
-1.71572e-05
0.00119238
-3.02024e-06
-1.96609e-05
0.00120255
-3.34497e-06
-2.27326e-05
0.00121446
-3.74535e-06
-2.65302e-05
0.00122853
-4.24553e-06
-3.12734e-05
0.00124528
-4.87609e-06
-3.72824e-05
0.00126542
-5.67633e-06
-4.5044e-05
0.00128984
-6.69695e-06
-5.53345e-05
0.00131961
-8.00281e-06
-6.9442e-05
0.00135555
-9.6717e-06
-8.96336e-05
-1.17099e-05
-0.000118961
0.00139621
0.00114515
-2.11495e-07
-8.22274e-06
0.00114596
-5.92646e-07
-8.24037e-06
0.00114754
-1.08125e-06
-8.25715e-06
0.00114977
-1.41718e-06
-8.83948e-06
0.00115266
-1.64427e-06
-9.69934e-06
0.00115619
-1.83426e-06
-1.07329e-05
0.00116038
-2.01033e-06
-1.19605e-05
0.0011653
-2.18205e-06
-1.34316e-05
0.00117108
-2.3618e-06
-1.52024e-05
0.00117785
-2.56304e-06
-1.73415e-05
0.00118583
-2.79873e-06
-1.99382e-05
0.00119526
-3.08283e-06
-2.31105e-05
0.00120646
-3.43228e-06
-2.70184e-05
0.00121984
-3.86842e-06
-3.18851e-05
0.00123593
-4.41887e-06
-3.80352e-05
0.00125541
-5.11985e-06
-4.59612e-05
0.00127918
-6.01951e-06
-5.64474e-05
0.00130831
-7.18261e-06
-7.0793e-05
0.00134361
-8.68935e-06
-9.12796e-05
-1.05347e-05
-0.000120975
0.00138366
0.00114305
2.26389e-06
-8.30087e-06
0.00114211
7.33468e-07
-7.32766e-06
0.00114211
-9.11099e-08
-7.00625e-06
0.00114278
-4.01252e-07
-7.42255e-06
0.00114419
-5.96474e-07
-8.14536e-06
0.00114634
-7.70611e-07
-9.07704e-06
0.00114925
-9.28431e-07
-1.02496e-05
0.00115299
-1.08062e-06
-1.17102e-05
0.00115767
-1.24211e-06
-1.3509e-05
0.00116346
-1.42354e-06
-1.57105e-05
0.00117055
-1.63385e-06
-1.84002e-05
0.00117917
-1.88292e-06
-2.16941e-05
0.00118966
-2.18288e-06
-2.57527e-05
0.00120241
-2.54968e-06
-3.08019e-05
0.00121795
-3.0051e-06
-3.71704e-05
0.00123698
-3.57914e-06
-4.5358e-05
0.00126038
-4.31306e-06
-5.61597e-05
0.00128924
-5.26535e-06
-7.08922e-05
0.00132437
-6.50078e-06
-9.18594e-05
-7.95434e-06
-0.000122177
0.00136434
0.00113178
1.01291e-05
-3.33849e-06
0.00112511
4.55376e-06
-2.96266e-06
0.00112054
2.93462e-06
-3.33859e-06
0.00111768
2.06042e-06
-4.30431e-06
0.0011164
1.38358e-06
-5.49328e-06
0.00111651
8.64482e-07
-6.85038e-06
0.00111786
4.74626e-07
-8.41603e-06
0.00112043
1.68428e-07
-1.02331e-05
0.00112424
-8.92367e-08
-1.23511e-05
0.00112938
-3.22192e-07
-1.48407e-05
0.00113602
-5.47925e-07
-1.77976e-05
0.00114436
-7.7959e-07
-2.13464e-05
0.00115471
-1.02904e-06
-2.56563e-05
0.00116747
-1.30917e-06
-3.0963e-05
0.00118315
-1.63584e-06
-3.76091e-05
0.00120247
-2.0302e-06
-4.61127e-05
0.00122633
-2.52178e-06
-5.72935e-05
0.00125581
-3.15454e-06
-7.25032e-05
0.0012918
-3.97627e-06
-9.4087e-05
-4.81538e-06
-0.000125323
0.00133297
0.000996287
-3.24573e-06
0.00100163
-1.73903e-06
0.00100549
-1.97476e-06
0.0010092
-2.95576e-06
0.00101303
-4.11322e-06
0.00101716
-5.45696e-06
0.00102177
-7.04792e-06
0.00102705
-8.92262e-06
0.00103319
-1.11257e-05
0.0010404
-1.37256e-05
0.00104891
-1.68215e-05
0.00105902
-2.05485e-05
0.00107109
-2.50863e-05
0.00108558
-3.06856e-05
0.00110306
-3.77104e-05
0.00112431
-4.67125e-05
0.0011503
-5.8564e-05
0.00118216
-7.46956e-05
0.00122083
-9.75418e-05
-0.000130764
0.00126535
0.000996907
-1.02465e-05
-1.56085e-06
0.00100356
-5.75851e-06
-2.63714e-06
0.00100962
-4.17309e-06
-3.85411e-06
0.00101534
-3.18437e-06
-5.49458e-06
0.001021
-2.38545e-06
-7.39051e-06
0.00102677
-1.71728e-06
-9.50645e-06
0.00103279
-1.16194e-06
-1.19072e-05
0.00103923
-6.90854e-07
-1.46726e-05
0.00104627
-2.77264e-07
-1.78904e-05
0.00105412
9.68236e-08
-2.16691e-05
0.001063
4.49279e-07
-2.61452e-05
0.00107314
7.98525e-07
-3.14958e-05
0.00108486
1.15909e-06
-3.79565e-05
0.00109847
1.54539e-06
-4.58442e-05
0.00111438
1.97389e-06
-5.55955e-05
0.00113303
2.46696e-06
-6.78323e-05
0.00115487
3.05543e-06
-8.34546e-05
0.00118016
3.78186e-06
-0.000103773
0.00120864
4.69455e-06
-0.000130708
5.664e-06
-0.00016666
0.00123887
0.00114337
-7.2537e-06
-1.25756e-06
0.00114227
-5.16349e-06
-2.46303e-06
0.00114207
-3.67912e-06
-3.62805e-06
0.00114249