/*--------------------------------*- C++ -*----------------------------------*\
  =========                 |
  \\      /  F ield         | OpenFOAM: The Open Source CFD Toolbox
   \\    /   O peration     | Website:  https://openfoam.org
    \\  /    A nd           | Version:  10
     \\/     M anipulation  |
\*---------------------------------------------------------------------------*/
FoamFile
{
    format      ascii;
    class       volScalarField;
    location    "150";
    object      rho;
}
// * * * * * * * * * * * * * * * * * * * * * * * * * * * * * * * * * * * * * //

dimensions      [1 -3 0 0 0 0 0];

internalField   nonuniform List<scalar> 
112000
(
0.575322
0.573612
0.572236
0.571406
0.570796
0.570196
0.569539
0.568803
0.567966
0.567
0.56587
0.564534
0.562943
0.56103
0.558702
0.555828
0.552215
0.547556
0.541264
0.533484
0.57106
0.570908
0.570584
0.570312
0.570045
0.569706
0.569263
0.568705
0.568018
0.567178
0.566157
0.564914
0.563402
0.561554
0.559277
0.55644
0.552846
0.548182
0.541841
0.534035
0.57155
0.571589
0.571448
0.57121
0.570913
0.570543
0.570081
0.56951
0.568812
0.567964
0.566934
0.565683
0.564161
0.5623
0.560006
0.557144
0.553514
0.548798
0.542372
0.53449
0.571563
0.57144
0.571196
0.570934
0.57065
0.570312
0.569893
0.569369
0.568718
0.567914
0.566925
0.565711
0.564221
0.562386
0.56011
0.557257
0.553624
0.548888
0.542409
0.534481
0.571514
0.57138
0.57116
0.570953
0.570722
0.570426
0.570037
0.569538
0.568906
0.568118
0.567142
0.565939
0.564455
0.562622
0.560344
0.557481
0.553827
0.549055
0.542513
0.534519
0.571458
0.571322
0.571101
0.570891
0.570656
0.570353
0.569959
0.569456
0.568824
0.568038
0.567064
0.565864
0.564383
0.56255
0.560269
0.557399
0.553728
0.548927
0.542335
0.534289
0.571408
0.571272
0.571053
0.570847
0.570618
0.570321
0.569933
0.569437
0.56881
0.568028
0.567058
0.565858
0.564376
0.56254
0.56025
0.557366
0.553674
0.54884
0.5422
0.534099
0.571369
0.571234
0.571017
0.570813
0.570585
0.570288
0.569899
0.5694
0.568771
0.567985
0.56701
0.565805
0.564316
0.562471
0.56017
0.557271
0.553559
0.548697
0.542017
0.53387
0.571342
0.571208
0.570992
0.57079
0.570562
0.570266
0.569877
0.569378
0.568748
0.567961
0.566984
0.565777
0.564284
0.562434
0.560125
0.557215
0.553488
0.548607
0.541899
0.533718
0.571329
0.571195
0.57098
0.570778
0.570551
0.570255
0.569865
0.569365
0.568735
0.567947
0.566969
0.565759
0.564263
0.562409
0.560096
0.557179
0.553444
0.548552
0.541831
0.533629
0.571329
0.571195
0.57098
0.570778
0.570551
0.570255
0.569865
0.569365
0.568735
0.567947
0.566969
0.565759
0.564263
0.562409
0.560096
0.557179
0.553444
0.548552
0.541831
0.533629
0.571342
0.571208
0.570992
0.57079
0.570562
0.570266
0.569877
0.569378
0.568748
0.567961
0.566984
0.565777
0.564284
0.562434
0.560125
0.557215
0.553488
0.548607
0.541899
0.533718
0.571369
0.571234
0.571017
0.570813
0.570585
0.570288
0.569899
0.5694
0.568771
0.567985
0.56701
0.565805
0.564316
0.562471
0.56017
0.557271
0.553559
0.548697
0.542017
0.53387
0.571408
0.571272
0.571053
0.570847
0.570618
0.570321
0.569933
0.569437
0.56881
0.568028
0.567058
0.565858
0.564376
0.56254
0.56025
0.557366
0.553674
0.54884
0.5422
0.534099
0.571458
0.571322
0.571101
0.570891
0.570656
0.570353
0.569959
0.569456
0.568824
0.568038
0.567064
0.565864
0.564383
0.56255
0.560269
0.557399
0.553728
0.548927
0.542335
0.534289
0.571514
0.57138
0.57116
0.570953
0.570722
0.570426
0.570037
0.569538
0.568906
0.568118
0.567142
0.565939
0.564455
0.562622
0.560344
0.557481
0.553827
0.549055
0.542513
0.534519
0.571563
0.57144
0.571196
0.570934
0.57065
0.570312
0.569893
0.569369
0.568718
0.567914
0.566925
0.565711
0.564221
0.562385
0.56011
0.557257
0.553624
0.548888
0.542409
0.534481
0.57155
0.571589
0.571448
0.57121
0.570912
0.570543
0.570081
0.56951
0.568812
0.567964
0.566934
0.565683
0.564161
0.5623
0.560006
0.557144
0.553514
0.548798
0.542372
0.53449
0.57106
0.570908
0.570584
0.570312
0.570045
0.569706
0.569263
0.568705
0.568018
0.567178
0.566157
0.564914
0.563402
0.561554
0.559277
0.55644
0.552846
0.548182
0.541841
0.534035
0.575322
0.573612
0.572236
0.571406
0.570796
0.570196
0.569539
0.568803
0.567966
0.567
0.56587
0.564534
0.562943
0.56103
0.558702
0.555828
0.552215
0.547556
0.541264
0.533484
0.571168
0.571018
0.570698
0.570432
0.570176
0.569852
0.56943
0.568898
0.568242
0.567442
0.566469
0.565286
0.563848
0.562092
0.559934
0.557257
0.553893
0.549592
0.543936
0.536843
0.566749
0.567124
0.567467
0.567599
0.567573
0.567419
0.567143
0.566741
0.566203
0.565508
0.564632
0.563538
0.562181
0.560498
0.558407
0.555788
0.552473
0.548208
0.542573
0.535526
0.567452
0.568118
0.568617
0.568751
0.568639
0.568375
0.567989
0.567483
0.566845
0.566057
0.565092
0.563914
0.562477
0.560718
0.558548
0.555849
0.552446
0.548082
0.542326
0.535173
0.567418
0.568063
0.568528
0.568683
0.568623
0.568416
0.568082
0.567619
0.567014
0.566249
0.565297
0.564124
0.562682
0.560908
0.558714
0.555979
0.552525
0.548091
0.542235
0.534981
0.56734
0.568027
0.568548
0.568777
0.568794
0.568655
0.568375
0.567954
0.567382
0.56664
0.565704
0.564538
0.563095
0.561312
0.559101
0.556337
0.55284
0.548345
0.542401
0.535053
0.567271
0.567967
0.568498
0.568734
0.568759
0.568631
0.568366
0.567962
0.567408
0.566685
0.565767
0.564618
0.563188
0.561414
0.559205
0.556435
0.552921
0.548393
0.542393
0.534986
0.567214
0.567914
0.568451
0.568693
0.568726
0.568607
0.568354
0.567964
0.567423
0.566714
0.565808
0.564669
0.563248
0.561479
0.55927
0.556494
0.552966
0.548413
0.54237
0.534915
0.567172
0.567873
0.568414
0.568659
0.568693
0.568575
0.568323
0.567934
0.567395
0.566686
0.565782
0.564643
0.563222
0.561451
0.559238
0.556454
0.552912
0.548338
0.542263
0.534772
0.567143
0.567845
0.568389
0.568636
0.568671
0.568553
0.568301
0.567911
0.567373
0.566665
0.56576
0.564621
0.563199
0.561425
0.559208
0.556417
0.552865
0.548275
0.542179
0.53466
0.567129
0.567832
0.568376
0.568624
0.568659
0.568541
0.568289
0.567899
0.56736
0.566651
0.565745
0.564605
0.563181
0.561404
0.559184
0.556388
0.55283
0.548232
0.542124
0.53459
0.567129
0.567832
0.568376
0.568624
0.568659
0.568541
0.568289
0.567899
0.56736
0.566651
0.565745
0.564605
0.563181
0.561404
0.559184
0.556388
0.55283
0.548232
0.542124
0.53459
0.567143
0.567845
0.568389
0.568636
0.568671
0.568553
0.568301
0.567911
0.567373
0.566665
0.56576
0.564621
0.563199
0.561425
0.559208
0.556417
0.552865
0.548275
0.542179
0.53466
0.567171
0.567873
0.568414
0.568659
0.568693
0.568575
0.568323
0.567934
0.567395
0.566686
0.565782
0.564643
0.563222
0.561451
0.559238
0.556453
0.552912
0.548338
0.542263
0.534772
0.567214
0.567914
0.568451
0.568693
0.568726
0.568607
0.568354
0.567964
0.567423
0.566714
0.565808
0.564669
0.563248
0.561479
0.55927
0.556494
0.552966
0.548413
0.54237
0.534915
0.567271
0.567967
0.568498
0.568734
0.568759
0.568631
0.568366
0.567962
0.567408
0.566685
0.565767
0.564618
0.563188
0.561414
0.559205
0.556435
0.552921
0.548393
0.542393
0.534986
0.56734
0.568027
0.568548
0.568777
0.568794
0.568655
0.568375
0.567954
0.567382
0.56664
0.565704
0.564538
0.563095
0.561312
0.559101
0.556337
0.55284
0.548345
0.542401
0.535053
0.567418
0.568063
0.568528
0.568683
0.568623
0.568416
0.568082
0.567619
0.567014
0.566249
0.565297
0.564124
0.562682
0.560908
0.558714
0.555979
0.552525
0.548091
0.542235
0.534981
0.567452
0.568118
0.568617
0.568751
0.568639
0.568375
0.567989
0.567483
0.566845
0.566057
0.565092
0.563914
0.562477
0.560718
0.558548
0.555849
0.552446
0.548082
0.542326
0.535173
0.566749
0.567124
0.567467
0.567599
0.567573
0.567419
0.567143
0.566741
0.566203
0.565508
0.564632
0.563538
0.562181
0.560498
0.558407
0.555788
0.552473
0.548208
0.542573
0.535526
0.571168
0.571018
0.570698
0.570432
0.570176
0.569852
0.56943
0.568898
0.568242
0.567442
0.566469
0.565286
0.563848
0.562092
0.559934
0.557257
0.553893
0.549592
0.543936
0.536843
0.571853
0.571893
0.571759
0.571534
0.571259
0.570921
0.570502
0.569986
0.569358
0.568596
0.567675
0.56656
0.565211
0.563573
0.561574
0.559119
0.55608
0.552283
0.547472
0.541615
0.56766
0.568327
0.568831
0.568975
0.56888
0.56864
0.568285
0.567819
0.567231
0.566506
0.565619
0.56454
0.563227
0.561625
0.559665
0.55725
0.55425
0.55049
0.545712
0.539918
0.569388
0.569214
0.569299
0.569201
0.568909
0.568507
0.56803
0.56747
0.56681
0.566025
0.565089
0.563965
0.562611
0.56097
0.558968
0.556507
0.553455
0.549632
0.544772
0.538909
0.569436
0.569382
0.569397
0.56926
0.568953
0.568535
0.568036
0.567454
0.566771
0.565962
0.565001
0.56385
0.562465
0.56079
0.558747
0.556237
0.553124
0.549224
0.544264
0.538301
0.569272
0.56944
0.569596
0.569557
0.569331
0.568971
0.568505
0.567936
0.56725
0.566428
0.565445
0.564265
0.562845
0.561127
0.559034
0.556465
0.553282
0.549296
0.544226
0.538154
0.569166
0.569397
0.569599
0.569583
0.569382
0.569053
0.568618
0.568077
0.567418
0.566618
0.56565
0.564481
0.563065
0.561344
0.559239
0.556647
0.553429
0.549392
0.544249
0.5381
0.569092
0.569339
0.569561
0.569559
0.569372
0.569062
0.568651
0.568135
0.567498
0.56672
0.565773
0.56462
0.563215
0.5615
0.559396
0.556797
0.55356
0.549492
0.544301
0.538101
0.56904
0.569292
0.569524
0.569529
0.569345
0.569039
0.568633
0.568124
0.567495
0.566725
0.565786
0.56464
0.563242
0.561532
0.559429
0.556826
0.55358
0.549495
0.544274
0.538043
0.569007
0.56926
0.569498
0.569506
0.569324
0.569017
0.568613
0.568105
0.56748
0.566713
0.565777
0.564635
0.563239
0.56153
0.559427
0.556822
0.55357
0.549474
0.544235
0.537983
0.56899
0.569245
0.569484
0.569495
0.569312
0.569006
0.568601
0.568093
0.567468
0.566702
0.565766
0.564624
0.563229
0.561519
0.559415
0.556807
0.553552
0.549449
0.544201
0.537938
0.56899
0.569245
0.569484
0.569495
0.569312
0.569006
0.568601
0.568093
0.567468
0.566702
0.565766
0.564624
0.563229
0.561519
0.559415
0.556807
0.553552
0.549449
0.544201
0.537938
0.569007
0.56926
0.569498
0.569506
0.569324
0.569017
0.568612
0.568105
0.56748
0.566713
0.565777
0.564635
0.563239
0.56153
0.559427
0.556822
0.55357
0.549474
0.544235
0.537983
0.56904
0.569291
0.569524
0.569529
0.569345
0.569039
0.568633
0.568124
0.567495
0.566725
0.565786
0.56464
0.563242
0.561532
0.559429
0.556826
0.55358
0.549495
0.544274
0.538042
0.569092
0.569339
0.569561
0.569559
0.569372
0.569062
0.568651
0.568135
0.567498
0.56672
0.565773
0.56462
0.563215
0.5615
0.559396
0.556796
0.55356
0.549492
0.544301
0.538101
0.569166
0.569397
0.569599
0.569583
0.569382
0.569053
0.568618
0.568077
0.567417
0.566618
0.56565
0.564481
0.563065
0.561344
0.559239
0.556647
0.553429
0.549392
0.544249
0.5381
0.569272
0.56944
0.569596
0.569557
0.569331
0.568971
0.568505
0.567936
0.56725
0.566428
0.565445
0.564265
0.562845
0.561127
0.559034
0.556465
0.553282
0.549296
0.544226
0.538154
0.569436
0.569381
0.569397
0.56926
0.568953
0.568535
0.568036
0.567454
0.56677
0.565962
0.565001
0.56385
0.562465
0.56079
0.558747
0.556237
0.553124
0.549224
0.544264
0.538301
0.569388
0.569214
0.569299
0.569201
0.568909
0.568507
0.56803
0.56747
0.56681
0.566025
0.565089
0.563965
0.562611
0.56097
0.558968
0.556507
0.553455
0.549632
0.544772
0.538909
0.56766
0.568327
0.568831
0.568975
0.56888
0.56864
0.568286
0.567819
0.567231
0.566506
0.565619
0.56454
0.563227
0.561625
0.559665
0.55725
0.55425
0.55049
0.545712
0.539918
0.571853
0.571893
0.571759
0.571534
0.571259
0.570921
0.570502
0.569986
0.569358
0.568596
0.567675
0.56656
0.565211
0.563573
0.561574
0.559119
0.55608
0.552283
0.547472
0.541615
0.572141
0.572021
0.571787
0.571548
0.571302
0.571017
0.570669
0.570238
0.569705
0.569051
0.568251
0.567277
0.566093
0.564656
0.562907
0.560777
0.558175
0.554992
0.551092
0.546472
0.567909
0.568556
0.569032
0.569211
0.569188
0.569032
0.568766
0.56839
0.567896
0.567269
0.56649
0.565535
0.564368
0.562948
0.561219
0.559111
0.556536
0.553382
0.549511
0.544945
0.569739
0.569685
0.569709
0.569589
0.569308
0.568924
0.56847
0.567943
0.567329
0.566606
0.56575
0.56473
0.563509
0.562043
0.560273
0.558125
0.555508
0.552307
0.548379
0.54377
0.570495
0.56975
0.569338
0.569059
0.568739
0.568351
0.567902
0.567384
0.56678
0.566063
0.565209
0.564186
0.562957
0.561476
0.559683
0.557503
0.554843
0.551586
0.547583
0.542898
0.570361
0.569969
0.569687
0.569465
0.56918
0.568799
0.568333
0.567782
0.567136
0.566373
0.56547
0.564396
0.563114
0.561575
0.559721
0.557474
0.554739
0.551395
0.547288
0.542498
0.570173
0.569993
0.56983
0.569655
0.569401
0.56905
0.568607
0.568071
0.567432
0.566669
0.56576
0.564674
0.563372
0.561807
0.559919
0.557629
0.554839
0.551427
0.547234
0.542356
0.570064
0.569943
0.569832
0.569684
0.569455
0.569137
0.56873
0.568227
0.567617
0.566878
0.565987
0.564912
0.563615
0.562049
0.56015
0.557841
0.55502
0.551565
0.547313
0.542373
0.569994
0.569889
0.569801
0.569667
0.569446
0.569139
0.568746
0.56826
0.567667
0.566944
0.566068
0.565006
0.56372
0.562161
0.560264
0.557951
0.555119
0.551644
0.547359
0.542385
0.569952
0.569851
0.569775
0.569647
0.569429
0.569123
0.568735
0.568255
0.567669
0.566955
0.566088
0.565034
0.563756
0.562202
0.56031
0.557997
0.555162
0.551678
0.547375
0.542384
0.569932
0.569833
0.56976
0.569636
0.569419
0.569113
0.568724
0.568247
0.567663
0.566951
0.566086
0.565036
0.56376
0.562209
0.560318
0.558006
0.555169
0.551681
0.547372
0.542373
0.569932
0.569833
0.56976
0.569636
0.569419
0.569113
0.568724
0.568247
0.567663
0.566951
0.566086
0.565036
0.56376
0.562209
0.560318
0.558006
0.555169
0.551681
0.547372
0.542373
0.569952
0.569851
0.569775
0.569647
0.569429
0.569123
0.568735
0.568255
0.567669
0.566955
0.566088
0.565034
0.563756
0.562202
0.56031
0.557997
0.555162
0.551678
0.547375
0.542384
0.569994
0.569889
0.569801
0.569667
0.569446
0.569139
0.568746
0.56826
0.567667
0.566944
0.566068
0.565006
0.56372
0.562161
0.560264
0.557951
0.555119
0.551644
0.547359
0.542385
0.570064
0.569943
0.569832
0.569684
0.569455
0.569137
0.56873
0.568227
0.567617
0.566878
0.565987
0.564912
0.563615
0.562049
0.56015
0.557841
0.55502
0.551565
0.547313
0.542373
0.570173
0.569993
0.56983
0.569655
0.569401
0.56905
0.568607
0.568071
0.567432
0.566669
0.56576
0.564674
0.563372
0.561807
0.559919
0.557629
0.554839
0.551427
0.547234
0.542356
0.570361
0.569969
0.569687
0.569465
0.56918
0.568799
0.568333
0.567782
0.567136
0.566373
0.56547
0.564396
0.563114
0.561575
0.559721
0.557474
0.554739
0.551395
0.547288
0.542498
0.570495
0.56975
0.569338
0.569058
0.568739
0.568351
0.567902
0.567384
0.56678
0.566063
0.565209
0.564186
0.562957
0.561476
0.559683
0.557503
0.554843
0.551586
0.547583
0.542898
0.569739
0.569684
0.569709
0.569589
0.569308
0.568924
0.56847
0.567943
0.567329
0.566606
0.56575
0.56473
0.563509
0.562043
0.560273
0.558125
0.555508
0.552307
0.548379
0.54377
0.567909
0.568556
0.569032
0.569211
0.569188
0.569032
0.568766
0.56839
0.567896
0.567269
0.56649
0.565535
0.564368
0.562948
0.561219
0.559111
0.556536
0.553382
0.549511
0.544945
0.572141
0.572021
0.571787
0.571548
0.571302
0.571017
0.570669
0.570238
0.569705
0.569051
0.568251
0.567277
0.566093
0.564656
0.562907
0.560777
0.558175
0.554992
0.551092
0.546472
0.572436
0.572307
0.572107
0.571938
0.571767
0.571555
0.571278
0.570921
0.570472
0.569913
0.569226
0.568387
0.56737
0.566138
0.564652
0.562861
0.560709
0.558135
0.555074
0.551542
0.568178
0.568869
0.569409
0.569676
0.569753
0.569695
0.569522
0.56924
0.568843
0.568321
0.567661
0.566843
0.565843
0.564628
0.563158
0.561387
0.559257
0.556705
0.553669
0.550171
0.569935
0.570104
0.570275
0.570268
0.570091
0.569799
0.569421
0.568964
0.56842
0.567776
0.567013
0.566109
0.565036
0.563759
0.562236
0.560418
0.558243
0.555648
0.552564
0.549025
0.57074
0.570347
0.570072
0.569868
0.56961
0.569268
0.568851
0.568364
0.567797
0.567134
0.566354
0.565432
0.564341
0.563045
0.5615
0.559654
0.557445
0.554807
0.551667
0.54807
0.571156
0.570464
0.570031
0.569789
0.569546
0.569223
0.568814
0.568323
0.567744
0.567062
0.566258
0.565308
0.564183
0.562848
0.561259
0.559363
0.557097
0.554392
0.55117
0.547488
0.570982
0.570613
0.570297
0.570073
0.569826
0.569493
0.56907
0.568561
0.567962
0.567258
0.56643
0.565454
0.564299
0.56293
0.561301
0.559358
0.557037
0.554266
0.550964
0.5472
0.570798
0.570614
0.570414
0.570238
0.570022
0.569721
0.569325
0.568837
0.568251
0.567553
0.566724
0.565741
0.564573
0.563184
0.561528
0.559551
0.557186
0.554361
0.550992
0.547158
0.570696
0.570565
0.570416
0.570266
0.570068
0.569788
0.569418
0.568955
0.568391
0.567711
0.566897
0.565924
0.564762
0.563374
0.561713
0.559723
0.557337
0.554482
0.551071
0.547194
0.570638
0.570521
0.570394
0.570258
0.570066
0.569794
0.569436
0.568987
0.568437
0.567773
0.566972
0.566012
0.56486
0.563479
0.561822
0.559832
0.55744
0.554572
0.551141
0.547242
0.570612
0.570498
0.57038
0.570249
0.570059
0.569788
0.569433
0.568989
0.568445
0.567787
0.566993
0.566039
0.564893
0.563517
0.561864
0.559875
0.557483
0.554612
0.551173
0.547266
0.570612
0.570498
0.57038
0.570249
0.570059
0.569788
0.569433
0.568989
0.568445
0.567787
0.566993
0.566039
0.564893
0.563517
0.561864
0.559875
0.557483
0.554612
0.551173
0.547266
0.570638
0.570521
0.570394
0.570257
0.570066
0.569794
0.569436
0.568987
0.568437
0.567773
0.566972
0.566012
0.56486
0.563479
0.561822
0.559832
0.55744
0.554572
0.551141
0.547242
0.570696
0.570565
0.570416
0.570266
0.570068
0.569788
0.569418
0.568955
0.568391
0.567711
0.566897
0.565924
0.564762
0.563374
0.561713
0.559723
0.557337
0.554482
0.551071
0.547194
0.570798
0.570614
0.570414
0.570238
0.570022
0.569721
0.569325
0.568837
0.568251
0.567553
0.566724
0.56574
0.564573
0.563184
0.561528
0.559551
0.557186
0.554361
0.550992
0.547158
0.570982
0.570613
0.570297
0.570073
0.569826
0.569493
0.56907
0.568561
0.567962
0.567258
0.56643
0.565454
0.564299
0.56293
0.561301
0.559358
0.557037
0.554266
0.550964
0.5472
0.571156
0.570464
0.570031
0.569789
0.569546
0.569223
0.568814
0.568323
0.567744
0.567062
0.566258
0.565308
0.564183
0.562848
0.561259
0.559363
0.557097
0.554392
0.55117
0.547488
0.57074
0.570346
0.570072
0.569868
0.56961
0.569268
0.568851
0.568364
0.567797
0.567134
0.566354
0.565432
0.564341
0.563045
0.5615
0.559654
0.557445
0.554807
0.551667
0.54807
0.569935
0.570104
0.570275
0.570268
0.570091
0.569799
0.569421
0.568964
0.56842
0.567776
0.567013
0.566109
0.565036
0.563759
0.562236
0.560418
0.558243
0.555648
0.552564
0.549025
0.568178
0.568869
0.569409
0.569676
0.569753
0.569695
0.569523
0.56924
0.568843
0.568321
0.567661
0.566843
0.565843
0.564628
0.563158
0.561387
0.559257
0.556705
0.553669
0.550171
0.572436
0.572307
0.572107
0.571937
0.571767
0.571555
0.571278
0.570921
0.570472
0.569913
0.569226
0.568387
0.56737
0.566138
0.564652
0.562861
0.560709
0.558135
0.555074
0.551542
0.572782
0.572654
0.572462
0.572309
0.572162
0.571981
0.571747
0.57145
0.571078
0.570618
0.570053
0.569366
0.568536
0.567538
0.566344
0.564921
0.563237
0.561261
0.558975
0.556399
0.568511
0.569214
0.569774
0.570067
0.570179
0.57017
0.57006
0.569856
0.569554
0.569147
0.568623
0.567969
0.567166
0.566191
0.565017
0.563613
0.561947
0.55999
0.557721
0.555163
0.570241
0.570475
0.570701
0.570734
0.57061
0.570385
0.570087
0.569721
0.569281
0.568756
0.568132
0.567391
0.566513
0.565473
0.564241
0.562786
0.561073
0.559069
0.556751
0.554145
0.570977
0.570795
0.570648
0.570508
0.57031
0.570037
0.569696
0.56929
0.568814
0.568256
0.5676
0.566828
0.565919
0.564847
0.563584
0.562095
0.560345
0.558298
0.555928
0.553265
0.571424
0.571054
0.570747
0.570544
0.570329
0.57004
0.569674
0.569236
0.568726
0.568132
0.56744
0.566631
0.565683
0.564571
0.563266
0.561731
0.55993
0.557826
0.555388
0.552652
0.571715
0.571113
0.570675
0.570408
0.570173
0.569887
0.56953
0.569104
0.568604
0.568018
0.567329
0.566518
0.565563
0.564437
0.56311
0.561547
0.559708
0.557556
0.555059
0.552257
0.571541
0.57122
0.570898
0.570655
0.570419
0.57013
0.569769
0.569335
0.568825
0.568226
0.567522
0.566693
0.565717
0.564567
0.56321
0.561612
0.559731
0.557529
0.554971
0.552105
0.571373
0.571214
0.571
0.570802
0.57059
0.570322
0.56998
0.56956
0.569058
0.568463
0.567758
0.566924
0.565938
0.564773
0.563398
0.561773
0.559861
0.557619
0.555012
0.552096
0.571287
0.571176
0.571007
0.570833
0.570636
0.570386
0.570065
0.569667
0.569185
0.568606
0.567913
0.567089
0.566108
0.564944
0.563564
0.56193
0.560001
0.557737
0.5551
0.552151
0.57125
0.571149
0.570998
0.570834
0.570642
0.570398
0.570087
0.5697
0.569229
0.56866
0.567978
0.567161
0.566187
0.565027
0.563649
0.562014
0.560081
0.557808
0.555158
0.552194
0.57125
0.571149
0.570998
0.570834
0.570642
0.570398
0.570087
0.5697
0.569229
0.56866
0.567978
0.567161
0.566187
0.565027
0.563649
0.562014
0.560081
0.557808
0.555158
0.552194
0.571287
0.571176
0.571007
0.570833
0.570636
0.570386
0.570065
0.569667
0.569185
0.568606
0.567913
0.567089
0.566108
0.564944
0.563564
0.56193
0.560001
0.557737
0.5551
0.552151
0.571373
0.571214
0.571
0.570802
0.57059
0.570322
0.56998
0.56956
0.569058
0.568463
0.567758
0.566924
0.565938
0.564773
0.563398
0.561773
0.559861
0.557619
0.555012
0.552096
0.571541
0.57122
0.570898
0.570655
0.570419
0.57013
0.569769
0.569335
0.568825
0.568226
0.567522
0.566693
0.565717
0.564567
0.56321
0.561612
0.559731
0.557529
0.554971
0.552105
0.571715
0.571113
0.570675
0.570408
0.570173
0.569887
0.56953
0.569104
0.568604
0.568018
0.567329
0.566518
0.565563
0.564437
0.56311
0.561547
0.559708
0.557556
0.555059
0.552257
0.571424
0.571054
0.570747
0.570544
0.570329
0.57004
0.569674
0.569236
0.568726
0.568132
0.56744
0.566631
0.565683
0.564571
0.563266
0.561731
0.55993
0.557826
0.555388
0.552652
0.570977
0.570795
0.570648
0.570508
0.57031
0.570037
0.569696
0.56929
0.568814
0.568256
0.567599
0.566828
0.565919
0.564847
0.563584
0.562095
0.560345
0.558298
0.555928
0.553265
0.570241
0.570475
0.5707
0.570734
0.570609
0.570385
0.570087
0.569721
0.569281
0.568756
0.568132
0.567391
0.566513
0.565473
0.564241
0.562786
0.561073
0.559069
0.556751
0.554145
0.568511
0.569214
0.569774
0.570067
0.570179
0.570169
0.57006
0.569856
0.569554
0.569147
0.568623
0.567969
0.567166
0.566191
0.565017
0.563613
0.561947
0.55999
0.557721
0.555163
0.572781
0.572654
0.572462
0.572309
0.572162
0.571981
0.571747
0.57145
0.571078
0.570618
0.570053
0.569366
0.568536
0.567538
0.566344
0.564921
0.563237
0.561261
0.558975
0.556399
0.573179
0.573055
0.572877
0.572749
0.572639
0.572507
0.572335
0.572114
0.571835
0.571486
0.571055
0.57053
0.569897
0.569138
0.568236
0.567174
0.565935
0.564509
0.562901
0.561135
0.568901
0.569611
0.570189
0.570509
0.57066
0.570702
0.570659
0.570537
0.570333
0.570044
0.569662
0.569176
0.568574
0.567842
0.566964
0.565923
0.564703
0.563295
0.561701
0.559946
0.570622
0.570873
0.57113
0.571198
0.571118
0.570954
0.570733
0.570459
0.570127
0.569728
0.569251
0.568684
0.568012
0.567219
0.566287
0.565196
0.56393
0.562476
0.560836
0.559031
0.571332
0.571211
0.571125
0.571032
0.570889
0.57069
0.570438
0.570135
0.569773
0.569345
0.568838
0.568241
0.567537
0.566711
0.565745
0.564618
0.563313
0.561817
0.560126
0.558264
0.571717
0.571532
0.571349
0.571214
0.571061
0.570847
0.570565
0.570221
0.569814
0.569338
0.568783
0.568137
0.567385
0.56651
0.565495
0.564318
0.562961
0.561408
0.559654
0.557723
0.572033
0.571711
0.571399
0.571179
0.570978
0.570736
0.570437
0.570081
0.569665
0.569184
0.568623
0.567969
0.567207
0.56632
0.565287
0.564087
0.5627
0.561109
0.559308
0.557321
0.57227
0.57174
0.571323
0.571053
0.570836
0.5706
0.570316
0.569977
0.569578
0.569109
0.568558
0.567909
0.567147
0.566254
0.565209
0.563991
0.562579
0.560955
0.559111
0.557076
0.572112
0.571829
0.571518
0.571271
0.571051
0.570805
0.570511
0.570161
0.569749
0.569266
0.5687
0.568036
0.567256
0.566344
0.565276
0.564032
0.562589
0.560928
0.559041
0.55696
0.57197
0.571831
0.571616
0.571409
0.571209
0.57098
0.570702
0.570363
0.569957
0.569475
0.568906
0.568234
0.567444
0.566516
0.56543
0.564162
0.562691
0.560997
0.559071
0.55695
0.571912
0.571813
0.571632
0.571443
0.571255
0.571041
0.570779
0.570455
0.570061
0.569589
0.569025
0.568356
0.567565
0.566633
0.565539
0.564261
0.562775
0.561063
0.559116
0.556971
0.571912
0.571813
0.571632
0.571443
0.571255
0.571041
0.570779
0.570455
0.570061
0.569589
0.569025
0.568356
0.567565
0.566633
0.565539
0.564261
0.562775
0.561063
0.559116
0.556971
0.57197
0.571831
0.571616
0.571409
0.571209
0.57098
0.570702
0.570363
0.569957
0.569475
0.568906
0.568234
0.567444
0.566516
0.56543
0.564162
0.562691
0.560997
0.559071
0.55695
0.572112
0.571829
0.571518
0.571271
0.571051
0.570805
0.570511
0.570161
0.569749
0.569266
0.5687
0.568036
0.567256
0.566344
0.565276
0.564032
0.562589
0.560928
0.559041
0.55696
0.57227
0.57174
0.571322
0.571053
0.570836
0.5706
0.570316
0.569977
0.569578
0.569109
0.568558
0.567909
0.567147
0.566254
0.565209
0.563991
0.562579
0.560955
0.559111
0.557076
0.572033
0.571711
0.571399
0.571179
0.570978
0.570736
0.570437
0.570081
0.569665
0.569184
0.568623
0.567969
0.567207
0.56632
0.565287
0.564087
0.5627
0.561109
0.559308
0.557321
0.571717
0.571532
0.571349
0.571214
0.571061
0.570847
0.570565
0.570221
0.569814
0.569338
0.568783
0.568137
0.567385
0.56651
0.565495
0.564318
0.562961
0.561408
0.559654
0.557723
0.571332
0.571211
0.571124
0.571032
0.570889
0.57069
0.570438
0.570135
0.569773
0.569345
0.568838
0.56824
0.567537
0.566711
0.565745
0.564618
0.563313
0.561817
0.560126
0.558264
0.570622
0.570873
0.57113
0.571198
0.571118
0.570954
0.570733
0.570459
0.570127
0.569728
0.569251
0.568684
0.568012
0.567219
0.566287
0.565196
0.56393
0.562476
0.560836
0.559031
0.568901
0.569611
0.570189
0.570509
0.57066
0.570702
0.57066
0.570537
0.570333
0.570044
0.569662
0.569176
0.568574
0.567842
0.566964
0.565923
0.564703
0.563295
0.561701
0.559946
0.573179
0.573055
0.572877
0.572749
0.572639
0.572507
0.572335
0.572114
0.571835
0.571486
0.571055
0.57053
0.569897
0.569138
0.568236
0.567174
0.565935
0.564509
0.562901
0.561135
0.573621
0.573502
0.573338
0.573235
0.573161
0.573075
0.572961
0.572813
0.572623
0.572384
0.572088
0.571726
0.57129
0.570771
0.570159
0.569446
0.568629
0.567708
0.566698
0.565626
0.569338
0.570053
0.570648
0.570994
0.57118
0.571269
0.571286
0.571239
0.571128
0.570952
0.570707
0.570387
0.569986
0.569496
0.56891
0.568219
0.567419
0.566513
0.565515
0.564447
0.571056
0.571315
0.571594
0.571691
0.571647
0.571532
0.571375
0.571181
0.570948
0.570668
0.570334
0.569939
0.569474
0.568927
0.56829
0.567553
0.566711
0.565763
0.564721
0.563606
0.571757
0.571652
0.5716
0.571543
0.571442
0.571299
0.57112
0.570905
0.570651
0.57035
0.569994
0.569574
0.569082
0.568507
0.567839
0.56707
0.566191
0.565202
0.564114
0.562944
0.572119
0.571988
0.571866
0.571778
0.571676
0.571529
0.57133
0.571085
0.570791
0.570447
0.570044
0.569577
0.569036
0.568412
0.567694
0.566873
0.565941
0.564896
0.563746
0.562509
0.572381
0.572222
0.572026
0.571872
0.571729
0.571555
0.571336
0.571071
0.570761
0.570401
0.569983
0.5695
0.568942
0.568297
0.567557
0.566709
0.565746
0.564664
0.56347
0.56218
0.572642
0.572358
0.572058
0.571835
0.571652
0.571458
0.571229
0.570961
0.57065
0.57029
0.569873
0.569389
0.568828
0.568178
0.567428
0.566567
0.565586
0.564479
0.563252
0.561923
0.572858
0.572381
0.571985
0.571718
0.571516
0.57132
0.571098
0.57084
0.570539
0.570187
0.569775
0.569294
0.568732
0.568079
0.567321
0.566448
0.56545
0.564321
0.563066
0.561705
0.57273
0.572473
0.572167
0.571918
0.57171
0.571503
0.571269
0.570996
0.570677
0.570307
0.569877
0.569377
0.568794
0.568119
0.567338
0.566439
0.565413
0.564253
0.562966
0.561571
0.57263
0.572494
0.572262
0.572041
0.571848
0.57165
0.571421
0.571148
0.570826
0.570447
0.570005
0.56949
0.568892
0.568198
0.567398
0.566478
0.56543
0.564247
0.562935
0.561516
0.57263
0.572494
0.572262
0.572041
0.571848
0.57165
0.571421
0.571148
0.570826
0.570447
0.570005
0.56949
0.568892
0.568198
0.567398
0.566478
0.56543
0.564247
0.562935
0.561516
0.57273
0.572473
0.572167
0.571918
0.57171
0.571503
0.571269
0.570996
0.570677
0.570307
0.569877
0.569377
0.568794
0.568119
0.567338
0.566439
0.565413
0.564253
0.562966
0.561571
0.572858
0.572381
0.571985
0.571718
0.571516
0.57132
0.571098
0.57084
0.570539
0.570187
0.569775
0.569294
0.568732
0.568079
0.567321
0.566448
0.56545
0.564321
0.563066
0.561705
0.572642
0.572358
0.572058
0.571835
0.571652
0.571458
0.571229
0.570961
0.57065
0.57029
0.569873
0.569389
0.568828
0.568178
0.567428
0.566567
0.565586
0.564479
0.563252
0.561923
0.572381
0.572222
0.572026
0.571872
0.571729
0.571555
0.571336
0.571071
0.570761
0.570401
0.569983
0.5695
0.568942
0.568297
0.567557
0.566709
0.565746
0.564664
0.56347
0.56218
0.572119
0.571988
0.571866
0.571778
0.571676
0.571529
0.57133
0.571085
0.570791
0.570447
0.570044
0.569577
0.569036
0.568412
0.567694
0.566873
0.565941
0.564896
0.563746
0.562509
0.571757
0.571652
0.5716
0.571543
0.571442
0.571299
0.57112
0.570905
0.570651
0.57035
0.569994
0.569574
0.569082
0.568507
0.567839
0.56707
0.566191
0.565202
0.564114
0.562944
0.571056
0.571315
0.571594
0.571691
0.571647
0.571532
0.571375
0.571181
0.570948
0.570668
0.570334
0.569939
0.569474
0.568927
0.56829
0.567553
0.566711
0.565763
0.564721
0.563606
0.569338
0.570053
0.570648
0.570994
0.57118
0.571269
0.571286
0.571239
0.571128
0.570952
0.570707
0.570387
0.569986
0.569496
0.56891
0.568219
0.567419
0.566513
0.565515
0.564447
0.573621
0.573502
0.573338
0.573235
0.573161
0.573075
0.572961
0.572813
0.572623
0.572384
0.572088
0.571726
0.57129
0.570771
0.570159
0.569446
0.568629
0.567708
0.566698
0.565626
0.574098
0.573984
0.573834
0.573756
0.573718
0.573681
0.573629
0.573557
0.573462
0.573338
0.57318
0.572985
0.572748
0.572465
0.572134
0.571754
0.571327
0.570861
0.570374
0.569891
0.569812
0.570531
0.571141
0.571513
0.571735
0.571872
0.57195
0.571979
0.571963
0.571902
0.571796
0.571642
0.57144
0.571186
0.57088
0.57052
0.570109
0.569655
0.569175
0.568693
0.57153
0.571793
0.57209
0.572214
0.572206
0.572138
0.572043
0.571927
0.57179
0.571627
0.571435
0.571209
0.570945
0.570637
0.570283
0.56988
0.569429
0.568936
0.568416
0.567889
0.572228
0.572131
0.572101
0.572074
0.57201
0.571915
0.571801
0.571669
0.571516
0.571337
0.571127
0.570881
0.570595
0.570263
0.569883
0.569451
0.568968
0.568438
0.567876
0.567299
0.572582
0.572467
0.572378
0.572326
0.572265
0.572173
0.572047
0.571891
0.571706
0.57149
0.571239
0.57095
0.570619
0.570241
0.569814
0.569333
0.568799
0.568215
0.567595
0.566954
0.572826
0.572715