/*--------------------------------*- C++ -*----------------------------------*\
  =========                 |
  \\      /  F ield         | OpenFOAM: The Open Source CFD Toolbox
   \\    /   O peration     | Website:  https://openfoam.org
    \\  /    A nd           | Version:  10
     \\/     M anipulation  |
\*---------------------------------------------------------------------------*/
FoamFile
{
    format      ascii;
    class       volScalarField;
    location    "150";
    object      T;
}
// * * * * * * * * * * * * * * * * * * * * * * * * * * * * * * * * * * * * * //

dimensions      [0 0 0 1 0 0 0];

internalField   nonuniform List<scalar> 
112000
(
999.769
999.189
998.872
998.77
998.718
998.633
998.489
998.269
997.955
997.524
996.948
996.193
995.214
993.949
992.31
990.166
987.308
983.371
977.729
967.365
999.695
999.379
999.107
998.898
998.694
998.452
998.154
997.786
997.332
996.771
996.077
995.217
994.146
992.804
991.103
988.916
986.036
982.104
976.511
966.176
999.738
999.393
999.029
998.67
998.31
997.931
997.516
997.047
996.506
995.872
995.115
994.203
993.09
991.714
989.989
987.786
984.899
980.969
975.397
965.047
999.677
999.233
998.807
998.413
998.026
997.624
997.184
996.689
996.12
995.454
994.665
993.719
992.57
991.158
989.395
987.15
984.219
980.237
974.604
964.114
999.674
999.23
998.814
998.427
998.036
997.613
997.143
996.61
995.997
995.284
994.445
993.446
992.244
990.775
988.953
986.646
983.644
979.582
973.854
963.208
999.673
999.228
998.81
998.418
998.019
997.587
997.105
996.56
995.933
995.204
994.346
993.326
992.097
990.597
988.738
986.385
983.328
979.194
973.373
962.566
999.673
999.229
998.813
998.423
998.026
997.594
997.111
996.562
995.929
995.191
994.32
993.284
992.035
990.51
988.62
986.23
983.126
978.932
973.034
962.104
999.673
999.23
998.815
998.427
998.03
997.597
997.112
996.561
995.924
995.18
994.303
993.258
991.998
990.46
988.552
986.139
983.003
978.769
972.815
961.792
999.674
999.231
998.817
998.43
998.033
997.6
997.115
996.562
995.924
995.178
994.298
993.248
991.982
990.435
988.516
986.088
982.933
978.673
972.683
961.603
999.674
999.231
998.818
998.431
998.034
997.601
997.116
996.563
995.923
995.177
994.295
993.242
991.973
990.423
988.498
986.063
982.899
978.626
972.619
961.51
999.674
999.231
998.818
998.431
998.034
997.601
997.116
996.563
995.923
995.177
994.295
993.242
991.973
990.423
988.498
986.063
982.899
978.626
972.619
961.51
999.674
999.231
998.817
998.43
998.033
997.6
997.115
996.562
995.924
995.178
994.298
993.248
991.982
990.435
988.516
986.088
982.933
978.673
972.683
961.603
999.673
999.23
998.815
998.427
998.03
997.597
997.112
996.561
995.924
995.18
994.303
993.258
991.998
990.46
988.552
986.139
983.003
978.769
972.815
961.792
999.673
999.229
998.813
998.423
998.026
997.594
997.111
996.562
995.929
995.191
994.32
993.284
992.035
990.51
988.62
986.23
983.126
978.932
973.034
962.104
999.673
999.228
998.81
998.418
998.019
997.587
997.105
996.56
995.933
995.204
994.346
993.326
992.097
990.597
988.738
986.385
983.328
979.194
973.373
962.566
999.674
999.23
998.814
998.427
998.036
997.613
997.143
996.61
995.997
995.284
994.445
993.446
992.244
990.775
988.953
986.646
983.644
979.582
973.854
963.208
999.677
999.233
998.807
998.413
998.026
997.624
997.184
996.689
996.12
995.454
994.665
993.719
992.57
991.158
989.395
987.15
984.219
980.237
974.604
964.114
999.738
999.393
999.029
998.67
998.31
997.931
997.516
997.047
996.506
995.872
995.115
994.203
993.09
991.714
989.989
987.786
984.899
980.969
975.397
965.047
999.695
999.379
999.107
998.898
998.694
998.452
998.154
997.786
997.332
996.771
996.077
995.217
994.146
992.804
991.103
988.916
986.036
982.104
976.511
966.176
999.769
999.189
998.872
998.77
998.718
998.633
998.489
998.269
997.955
997.524
996.948
996.193
995.214
993.949
992.31
990.166
987.308
983.371
977.729
967.365
999.693
999.372
999.094
998.875
998.658
998.399
998.081
997.69
997.21
996.621
995.897
995.007
993.906
992.54
990.831
988.667
985.89
982.258
977.459
970.437
1000.67
1001.32
1001.68
1001.79
1001.72
1001.51
1001.19
1000.75
1000.2
999.531
998.714
997.725
996.524
995.056
993.245
990.981
988.102
984.364
979.445
972.312
1000.28
1000.69
1000.91
1000.95
1000.86
1000.67
1000.4
1000.03
999.559
998.965
998.227
997.316
996.191
994.797
993.058
990.864
988.051
984.379
979.526
972.458
1000.15
1000.38
1000.44
1000.36
1000.19
999.944
999.63
999.236
998.75
998.153
997.421
996.522
995.414
994.042
992.327
990.157
987.371
983.723
978.893
971.822
1000.14
1000.34
1000.35
1000.2
999.959
999.639
999.247
998.781
998.229
997.572
996.788
995.843
994.695
993.288
991.541
989.341
986.524
982.844
977.977
970.84
1000.14
1000.33
1000.33
1000.17
999.893
999.537
999.106
998.597
997.999
997.296
996.463
995.47
994.274
992.816
991.017
988.761
985.883
982.133
977.184
969.927
1000.14
1000.34
1000.34
1000.17
999.887
999.52
999.074
998.545
997.924
997.193
996.33
995.302
994.067
992.567
990.72
988.411
985.472
981.649
976.615
969.24
1000.14
1000.34
1000.34
1000.17
999.891
999.52
999.069
998.533
997.901
997.158
996.279
995.232
993.975
992.449
990.571
988.225
985.241
981.362
976.259
968.787
1000.15
1000.34
1000.35
1000.18
999.895
999.524
999.07
998.532
997.897
997.148
996.262
995.207
993.938
992.397
990.501
988.133
985.121
981.207
976.059
968.523
1000.15
1000.34
1000.35
1000.18
999.898
999.526
999.072
998.532
997.896
997.145
996.257
995.197
993.924
992.377
990.473
988.095
985.069
981.139
975.969
968.401
1000.15
1000.34
1000.35
1000.18
999.898
999.526
999.072
998.532
997.896
997.145
996.257
995.197
993.924
992.377
990.473
988.095
985.069
981.139
975.969
968.401
1000.15
1000.34
1000.35
1000.18
999.895
999.524
999.07
998.532
997.897
997.148
996.262
995.207
993.938
992.397
990.501
988.133
985.121
981.207
976.059
968.523
1000.14
1000.34
1000.34
1000.17
999.891
999.52
999.069
998.533
997.901
997.158
996.279
995.232
993.975
992.449
990.571
988.225
985.241
981.362
976.259
968.787
1000.14
1000.34
1000.34
1000.17
999.887
999.52
999.074
998.545
997.924
997.193
996.33
995.302
994.067
992.567
990.72
988.411
985.472
981.649
976.615
969.24
1000.14
1000.33
1000.33
1000.17
999.893
999.537
999.106
998.597
997.999
997.296
996.463
995.47
994.274
992.816
991.017
988.761
985.883
982.133
977.184
969.927
1000.14
1000.34
1000.35
1000.2
999.959
999.639
999.247
998.781
998.229
997.572
996.788
995.843
994.695
993.288
991.541
989.341
986.524
982.843
977.977
970.84
1000.15
1000.38
1000.44
1000.36
1000.19
999.944
999.63
999.236
998.75
998.153
997.421
996.522
995.414
994.042
992.327
990.157
987.371
983.723
978.893
971.822
1000.28
1000.69
1000.91
1000.95
1000.86
1000.67
1000.4
1000.03
999.559
998.965
998.227
997.316
996.191
994.797
993.058
990.864
988.051
984.379
979.526
972.458
1000.67
1001.32
1001.68
1001.79
1001.72
1001.51
1001.19
1000.75
1000.2
999.531
998.714
997.725
996.524
995.056
993.245
990.981
988.102
984.364
979.445
972.311
999.693
999.372
999.094
998.875
998.657
998.399
998.081
997.69
997.21
996.621
995.897
995.006
993.906
992.54
990.831
988.667
985.889
982.258
977.459
970.436
999.734
999.384
999.014
998.648
998.283
997.898
997.478
997.006
996.464
995.832
995.086
994.198
993.127
991.827
990.234
988.265
985.811
982.726
978.857
973.735
1000.28
1000.68
1000.9
1000.93
1000.84
1000.65
1000.38
1000.01
999.539
998.95
998.223
997.329
996.236
994.895
993.244
991.2
988.65
985.446
981.421
976.117
1000.71
1001.34
1001.75
1001.9
1001.86
1001.7
1001.45
1001.09
1000.62
1000.04
999.318
998.429
997.34
996.003
994.356
992.314
989.762
986.549
982.506
977.176
1000.24
1000.57
1000.86
1001.01
1001.05
1000.98
1000.82
1000.55
1000.17
999.665
999.011
998.185
997.152
995.867
994.266
992.265
989.75
986.566
982.546
977.218
1000.18
1000.39
1000.52
1000.54
1000.47
1000.32
1000.1
999.799
999.4
998.887
998.237
997.422
996.405
995.139
993.559
991.579
989.082
985.913
981.903
976.565
1000.18
1000.38
1000.46
1000.4
1000.26
1000.04
999.746
999.378
998.92
998.354
997.658
996.801
995.748
994.449
992.838
990.827
988.298
985.094
981.044
975.641
1000.18
1000.38
1000.46
1000.38
1000.21
999.957
999.628
999.218
998.715
998.103
997.358
996.453
995.351
994.002
992.339
990.275
987.689
984.421
980.299
974.803
1000.19
1000.39
1000.47
1000.39
1000.21
999.942
999.599
999.17
998.645
998.006
997.232
996.295
995.157
993.769
992.064
989.952
987.311
983.982
979.789
974.2
1000.19
1000.4
1000.47
1000.4
1000.21
999.943
999.595
999.16
998.625
997.975
997.187
996.233
995.076
993.664
991.932
989.788
987.111
983.737
979.493
973.837
1000.19
1000.4
1000.47
1000.4
1000.22
999.946
999.596
999.158
998.621
997.967
997.174
996.213
995.047
993.625
991.881
989.722
987.027
983.632
979.361
973.67
1000.19
1000.4
1000.47
1000.4
1000.22
999.946
999.596
999.158
998.621
997.967
997.174
996.213
995.047
993.625
991.881
989.722
987.027
983.632
979.361
973.67
1000.19
1000.4
1000.47
1000.4
1000.21
999.943
999.595
999.16
998.625
997.975
997.187
996.233
995.076
993.664
991.932
989.788
987.111
983.737
979.493
973.837
1000.19
1000.39
1000.47
1000.39
1000.21
999.942
999.599
999.17
998.645
998.006
997.232
996.295
995.157
993.769
992.064
989.952
987.311
983.982
979.789
974.2
1000.18
1000.38
1000.46
1000.38
1000.21
999.957
999.628
999.218
998.715
998.103
997.358
996.453
995.351
994.002
992.339
990.275
987.689
984.421
980.299
974.803
1000.18
1000.38
1000.46
1000.4
1000.26
1000.04
999.746
999.378
998.92
998.354
997.658
996.801
995.748
994.449
992.838
990.827
988.298
985.094
981.044
975.641
1000.18
1000.39
1000.52
1000.54
1000.47
1000.32
1000.1
999.799
999.4
998.887
998.237
997.422
996.405
995.139
993.559
991.579
989.082
985.913
981.903
976.565
1000.24
1000.57
1000.86
1001.01
1001.05
1000.98
1000.82
1000.55
1000.17
999.665
999.011
998.185
997.152
995.867
994.266
992.265
989.75
986.566
982.546
977.218
1000.71
1001.34
1001.75
1001.9
1001.86
1001.7
1001.45
1001.09
1000.62
1000.04
999.318
998.429
997.34
996.003
994.356
992.314
989.762
986.549
982.506
977.176
1000.28
1000.68
1000.9
1000.93
1000.84
1000.65
1000.38
1000.01
999.539
998.95
998.222
997.329
996.236
994.894
993.244
991.2
988.65
985.446
981.421
976.117
999.734
999.384
999.014
998.648
998.283
997.898
997.478
997.006
996.464
995.832
995.086
994.198
993.127
991.827
990.234
988.265
985.81
982.726
978.857
973.735
999.674
999.23
998.808
998.423
998.053
997.673
997.264
996.809
996.291
995.692
994.991
994.162
993.175
991.992
990.568
988.847
986.76
984.231
981.192
977.465
1000.15
1000.38
1000.45
1000.38
1000.22
999.994
999.703
999.339
998.891
998.344
997.678
996.869
995.888
994.696
993.249
991.484
989.332
986.708
983.539
979.649
1000.24
1000.58
1000.86
1001.02
1001.07
1001.01
1000.86
1000.61
1000.25
999.771
999.157
998.386
997.43
996.253
994.807
993.035
990.861
988.202
984.981
981.017
1000.41
1000.77
1001.12
1001.36
1001.47
1001.46
1001.34
1001.11
1000.78
1000.32
999.72
998.963
998.02
996.853
995.416
993.649
991.476
988.81
985.572
981.57
1000.09
1000.23
1000.45
1000.63
1000.74
1000.75
1000.67
1000.49
1000.2
999.794
999.247
998.538
997.641
996.518
995.12
993.387
991.244
988.6
985.376
981.369
1000.05
1000.12
1000.2
1000.26
1000.26
1000.19
1000.05
999.828
999.511
999.084
998.528
997.817
996.922
995.803
994.412
992.686
990.547
987.904
984.678
980.649
1000.06
1000.12
1000.17
1000.17
1000.1
999.972
999.768
999.485
999.111
998.631
998.026
997.272
996.336
995.181
993.755
991.994
989.82
987.141
983.875
979.792
1000.06
1000.13
1000.17
1000.16
1000.07
999.912
999.676
999.356
998.943
998.423
997.775
996.977
995.998
994.797
993.325
991.516
989.292
986.558
983.234
979.078
1000.06
1000.14
1000.19
1000.17
1000.07
999.903
999.654
999.319
998.888
998.345
997.673
996.848
995.839
994.606
993.098
991.251
988.984
986.204
982.828
978.61
1000.06
1000.14
1000.19
1000.17
1000.08
999.904
999.651
999.311
998.873
998.322
997.64
996.803
995.78
994.532
993.006
991.139
988.849
986.043
982.639
978.386
1000.06
1000.14
1000.19
1000.17
1000.08
999.904
999.651
999.311
998.873
998.322
997.64
996.803
995.78
994.532
993.006
991.139
988.849
986.043
982.639
978.386
1000.06
1000.14
1000.19
1000.17
1000.07
999.903
999.654
999.319
998.888
998.345
997.673
996.848
995.839
994.606
993.098
991.251
988.984
986.204
982.828
978.61
1000.06
1000.13
1000.17
1000.16
1000.07
999.912
999.676
999.356
998.943
998.423
997.775
996.977
995.998
994.797
993.325
991.516
989.292
986.558
983.234
979.078
1000.06
1000.12
1000.17
1000.17
1000.1
999.972
999.768
999.485
999.111
998.631
998.026
997.272
996.336
995.181
993.755
991.994
989.82
987.141
983.875
979.792
1000.05
1000.12
1000.2
1000.26
1000.26
1000.19
1000.05
999.828
999.511
999.084
998.528
997.817
996.922
995.803
994.412
992.686
990.547
987.904
984.678
980.649
1000.09
1000.23
1000.45
1000.63
1000.74
1000.75
1000.67
1000.49
1000.2
999.794
999.247
998.538
997.641
996.518
995.12
993.387
991.244
988.6
985.376
981.369
1000.41
1000.77
1001.12
1001.36
1001.47
1001.46
1001.34
1001.11
1000.78
1000.32
999.72
998.963
998.02
996.853
995.416
993.649
991.476
988.81
985.572
981.57
1000.24
1000.58
1000.86
1001.02
1001.07
1001.01
1000.86
1000.61
1000.25
999.771
999.157
998.385
997.43
996.253
994.807
993.035
990.861
988.202
984.981
981.017
1000.15
1000.38
1000.45
1000.38
1000.22
999.994
999.703
999.339
998.891
998.344
997.678
996.869
995.888
994.696
993.249
991.484
989.332
986.708
983.539
979.649
999.674
999.23
998.808
998.423
998.053
997.673
997.264
996.809
996.291
995.692
994.99
994.162
993.175
991.992
990.568
988.846
986.76
984.231
981.192
977.464
999.672
999.233
998.83
998.468
998.114
997.742
997.338
996.891
996.389
995.818
995.161
994.4
993.511
992.469
991.241
989.792
988.083
986.078
983.756
981.071
1000.14
1000.34
1000.37
1000.26
1000.05
999.782
999.454
999.068
998.615
998.084
997.459
996.721
995.846
994.805
993.565
992.088
990.331
988.255
985.835
983.024
1000.18
1000.4
1000.55
1000.59
1000.55
1000.44
1000.27
1000.02
999.698
999.278
998.745
998.083
997.267
996.27
995.06
993.595
991.835
989.735
987.269
984.388
1000.08
1000.24
1000.46
1000.66
1000.78
1000.81
1000.76
1000.61
1000.36
1000.01
999.525
998.903
998.119
997.144
995.947
994.486
992.719
990.602
988.105
985.171
1000.28
1000.48
1000.71
1000.9
1001.01
1001.01
1000.93
1000.77
1000.51
1000.15
999.674
999.062
998.289
997.327
996.141
994.691
992.93
990.812
988.307
985.347
1000.03
1000.07
1000.19
1000.31
1000.39
1000.4
1000.33
1000.19
999.951
999.616
999.164
998.574
997.824
996.884
995.719
994.286
992.539
990.43
987.929
984.958
1000.01
999.992
1000.01
1000.02
1000.01
999.947
999.823
999.633
999.366
999.006
998.535
997.932
997.173
996.226
995.055
993.617
991.865
989.749
987.239
984.247
1000.01
999.998
999.984
999.956
999.889
999.769
999.592
999.351
999.034
998.628
998.114
997.472
996.676
995.695
994.492
993.023
991.24
989.093
986.552
983.521
1000.02
1000.01
999.995
999.954
999.866
999.723
999.518
999.247
998.898
998.457
997.909
997.231
996.399
995.382
994.143
992.637
990.817
988.633
986.054
982.98
1000.02
1000.02
1000
999.96
999.867
999.715
999.501
999.218
998.855
998.399
997.834
997.137
996.286
995.248
993.987
992.459
990.615
988.406
985.802
982.701
1000.02
1000.02
1000
999.96
999.867
999.715
999.501
999.218
998.855
998.399
997.834
997.137
996.286
995.248
993.987
992.459
990.615
988.406
985.802
982.701
1000.02
1000.01
999.995
999.954
999.866
999.723
999.518
999.247
998.898
998.457
997.909
997.231
996.399
995.382
994.143
992.637
990.817
988.633
986.054
982.98
1000.01
999.998
999.984
999.956
999.889
999.769
999.592
999.351
999.034
998.628
998.114
997.472
996.676
995.695
994.492
993.023
991.24
989.093
986.552
983.521
1000.01
999.992
1000.01
1000.02
1000.01
999.947
999.823
999.633
999.366
999.006
998.535
997.932
997.173
996.226
995.055
993.617
991.865
989.749
987.239
984.247
1000.03
1000.07
1000.19
1000.31
1000.39
1000.4
1000.33
1000.19
999.951
999.616
999.164
998.574
997.824
996.884
995.719
994.286
992.539
990.43
987.929
984.958
1000.28
1000.48
1000.71
1000.9
1001.01
1001.01
1000.93
1000.77
1000.51
1000.15
999.674
999.062
998.289
997.327
996.141
994.691
992.93
990.812
988.307
985.347
1000.08
1000.24
1000.46
1000.66
1000.78
1000.81
1000.76
1000.61
1000.36
1000.01
999.525
998.903
998.119
997.144
995.947
994.486
992.719
990.602
988.105
985.171
1000.18
1000.4
1000.55
1000.59
1000.55
1000.44
1000.27
1000.02
999.698
999.278
998.745
998.083
997.267
996.27
995.06
993.595
991.835
989.735
987.269
984.388
1000.14
1000.34
1000.37
1000.26
1000.05
999.782
999.454
999.068
998.615
998.084
997.459
996.721
995.846
994.805
993.565
992.088
990.331
988.255
985.835
983.024
999.672
999.233
998.83
998.468
998.113
997.742
997.338
996.891
996.389
995.818
995.161
994.4
993.511
992.469
991.24
989.791
988.083
986.078
983.756
981.071
999.673
999.238
998.845
998.496
998.16
997.812
997.442
997.038
996.591
996.089
995.52
994.869
994.119
993.251
992.246
991.081
989.739
988.207
986.488
984.596
1000.14
1000.35
1000.38
1000.26
1000.05
999.786
999.465
999.095
998.671
998.184
997.622
996.973
996.22
995.342
994.318
993.125
991.743
990.156
988.364
986.379
1000.18
1000.4
1000.5
1000.5
1000.41
1000.27
1000.07
999.826
999.515
999.131
998.661
998.09
997.402
996.576
995.591
994.424
993.052
991.458
989.641
987.61
1000.05
1000.13
1000.24
1000.33
1000.37
1000.36
1000.29
1000.16
999.95
999.656
999.264
998.761
998.128
997.347
996.397
995.253
993.891
992.293
990.457
988.389
1000.03
1000.08
1000.2
1000.35
1000.45
1000.48
1000.45
1000.35
1000.17
999.911
999.549
999.072
998.464
997.704
996.77
995.636
994.278
992.677
990.828
988.733
1000.22
1000.34
1000.48
1000.6
1000.66
1000.66
1000.58
1000.44
1000.23
999.942
999.557
999.064
998.444
997.676
996.735
995.595
994.231
992.622
990.762
988.645
1000.01
1000.01
1000.05
1000.12
1000.17
1000.16
1000.09
999.964
999.764
999.483
999.107
998.622
998.008
997.245
996.309
995.173
993.811
992.202
990.34
988.213
999.991
999.94
999.903
999.882
999.847
999.779
999.665
999.498
999.27
998.968
998.576
998.079
997.457
996.687
995.746
994.606
993.241
991.628
989.764
987.628
999.996
999.946
999.887
999.825
999.744
999.628
999.468
999.259
998.99
998.651
998.225
997.698
997.049
996.256
995.294
994.136
992.755
991.129
989.254
987.107
999.999
999.954
999.894
999.821
999.723
999.588
999.407
999.176
998.884
998.52
998.072
997.523
996.853
996.04
995.061
993.886
992.49
990.851
988.965
986.808
999.999
999.954
999.894
999.821
999.723
999.588
999.407
999.176
998.884
998.52
998.072
997.523
996.853
996.04
995.061
993.886
992.49
990.851
988.965
986.808
999.996
999.946
999.887
999.825
999.744
999.628
999.468
999.259
998.99
998.651
998.225
997.698
997.049
996.256
995.294
994.136
992.755
991.129
989.254
987.107
999.991
999.94
999.903
999.882
999.847
999.779
999.665
999.498
999.27
998.968
998.576
998.079
997.457
996.687
995.746
994.606
993.241
991.628
989.764
987.628
1000.01
1000.01
1000.05
1000.12
1000.17
1000.16
1000.09
999.964
999.764
999.483
999.107
998.622
998.008
997.245
996.309
995.173
993.811
992.202
990.34
988.213
1000.22
1000.34
1000.48
1000.6
1000.66
1000.66
1000.58
1000.44
1000.23
999.942
999.557
999.064
998.444
997.676
996.735
995.595
994.231
992.622
990.762
988.645
1000.03
1000.08
1000.2
1000.35
1000.45
1000.48
1000.45
1000.35
1000.17
999.911
999.549
999.072
998.464
997.704
996.77
995.636
994.278
992.677
990.828
988.733
1000.05
1000.13
1000.24
1000.33
1000.37
1000.36
1000.29
1000.16
999.95
999.656
999.264
998.761
998.128
997.347
996.397
995.253
993.891
992.293
990.457
988.389
1000.18
1000.4
1000.5
1000.5
1000.41
1000.27
1000.07
999.826
999.515
999.131
998.661
998.09
997.402
996.576
995.591
994.424
993.052
991.458
989.641
987.61
1000.14
1000.35
1000.38
1000.26
1000.05
999.785
999.465
999.095
998.671
998.183
997.622
996.973
996.22
995.342
994.318
993.125
991.743
990.156
988.364
986.379
999.673
999.238
998.845
998.496
998.16
997.812
997.442
997.038
996.591
996.089
995.52
994.869
994.118
993.251
992.246
991.081
989.739
988.207
986.488
984.596
999.674
999.247
998.869
998.542
998.235
997.924
997.597
997.247
996.864
996.44
995.966
995.431
994.824
994.135
993.351
992.462
991.461
990.35
989.14
987.869
1000.15
1000.36
1000.41
1000.31
1000.12
999.879
999.593
999.264
998.892
998.471
997.995
997.453
996.836
996.131
995.326
994.41
993.374
992.218
990.953
989.614
1000.19
1000.41
1000.53
1000.52
1000.44
1000.31
1000.13
999.901
999.625
999.292
998.894
998.422
997.864
997.208
996.442
995.554
994.535
993.382
992.107
990.742
1000.06
1000.14
1000.22
1000.28
1000.3
1000.27
1000.19
1000.06
999.876
999.628
999.308
998.905
998.408
997.805
997.083
996.23
995.235
994.095
992.82
991.44
1000.01
1000.01
1000.05
1000.1
1000.15
1000.15
1000.12
1000.03
999.901
999.704
999.434
999.08
998.627
998.065
997.377
996.551
995.576
994.448
993.175
991.786
1000.01
1000.01
1000.07
1000.16
1000.23
1000.25
1000.23
1000.16
1000.02
999.826
999.554
999.197
998.742
998.177
997.486
996.655
995.674
994.537
993.253
991.846
1000.19
1000.27
1000.35
1000.43
1000.47
1000.46
1000.39
1000.28
1000.11
999.875
999.571
999.186
998.706
998.119
997.409
996.561
995.565
994.414
993.116
991.692
1000
999.974
999.983
1000.02
1000.05
1000.04
999.985
999.882
999.724
999.503
999.209
998.833
998.362
997.782
997.078
996.237
995.246
994.1
992.808
991.386
999.983
999.915
999.851
999.808
999.766
999.706
999.614
999.483
999.306
999.073
998.774
998.396
997.928
997.354
996.659
995.828
994.85
993.719
992.443
991.036
999.987
999.917
999.832
999.754
999.675
999.579
999.454
999.294
999.092
998.838
998.523
998.134
997.658
997.081
996.386
995.558
994.586
993.463
992.198
990.803
999.987
999.917
999.832
999.754
999.675
999.579
999.454
999.294
999.092
998.838
998.523
998.134
997.658
997.081
996.386
995.558
994.586
993.463
992.198
990.803
999.983
999.915
999.851
999.808
999.766
999.706
999.614
999.483
999.306
999.073
998.774
998.396
997.928
997.354
996.659
995.828
994.85
993.719
992.443
991.036
1000
999.974
999.983
1000.02
1000.05
1000.04
999.985
999.882
999.724
999.503
999.209
998.833
998.362
997.782
997.078
996.237
995.246
994.1
992.808
991.386
1000.19
1000.27
1000.35
1000.43
1000.47
1000.46
1000.39
1000.28
1000.11
999.875
999.571
999.186
998.706
998.119
997.409
996.561
995.565
994.414
993.116
991.692
1000.01
1000.01
1000.07
1000.16
1000.23
1000.25
1000.23
1000.16
1000.02
999.826
999.554
999.197
998.742
998.177
997.486
996.655
995.674
994.537
993.253
991.846
1000.01
1000.01
1000.05
1000.1
1000.15
1000.15
1000.12
1000.03
999.901
999.704
999.434
999.08
998.627
998.065
997.377
996.551
995.576
994.448
993.175
991.786
1000.06
1000.14
1000.22
1000.28
1000.3
1000.27
1000.19
1000.06
999.876
999.628
999.308
998.905
998.408
997.805
997.083
996.23
995.235
994.095
992.82
991.44
1000.19
1000.41
1000.53
1000.52
1000.44
1000.31
1000.13
999.901
999.625
999.292
998.894
998.422
997.864
997.208
996.442
995.554
994.535
993.382
992.107
990.742
1000.15
1000.36
1000.41
1000.31
1000.12
999.879
999.593
999.264
998.892
998.471
997.995
997.453
996.835
996.131
995.326
994.41
993.374
992.218
990.953
989.614
999.674
999.247
998.869
998.542
998.235
997.924
997.597
997.247
996.864
996.44
995.966
995.431
994.824
994.135
993.351
992.462
991.461
990.35
989.14
987.869
999.676
999.257
998.894
998.59
998.312
998.038
997.759
997.466
997.154
996.816
996.445
996.036
995.582
995.076
994.513
993.89
993.205
992.466
991.69
990.914
1000.15
1000.37
1000.43
1000.36
1000.2
999.996
999.755
999.482
999.177
998.838
998.462
998.042
997.573
997.05
996.465
995.815
995.101
994.327
993.509
992.685
1000.19
1000.43
1000.56
1000.58
1000.52
1000.41
1000.27
1000.09
999.874
999.614
999.308
998.95
998.534
998.054
997.505
996.882
996.186
995.421
994.603
993.768
1000.06
1000.16
1000.26
1000.33
1000.35
1000.33
1000.28
1000.18
1000.04
999.857
999.619
999.323
998.964
998.535
998.03
997.445
996.779
996.036
995.232
994.401
1000.02
1000.02
1000.05
1000.09
1000.11
1000.11
1000.07
1000.01
999.914
999.775
999.587
999.342
999.033
998.652
998.191
997.645
997.013
996.298
995.514
994.695
999.993
999.955
999.946
999.969
999.995
1000
999.987
999.941
999.86
999.738
999.567
999.339
999.045
998.679
998.232
997.699
997.077
996.37
995.591
994.773
1000
999.98
1000
1000.06
1000.11
1000.14
1000.14
1000.09
1000.01
999.873
999.69
999.447
999.139
998.759
998.298
997.752
997.117
996.398
995.608
994.779
1000.16
1000.22
1000.27
1000.32
1000.35
1000.35
1000.32
1000.24
1000.13
999.973
999.767
999.506
999.182
998.788
998.316
997.761
997.12
996.396
995.602
994.767
999.995
999.952
999.937
999.957
999.984
999.994
999.977
999.925
999.835
999.702
999.521
999.283
998.983
998.612
998.164
997.631
997.012
996.309
995.535
994.717
999.976
999.892
999.813
999.77
999.749
999.729
999.694
999.636
999.549
999.426
999.259
999.041
998.762
998.414
997.989
997.481
996.886
996.207
995.456
994.66
999.976
999.892
999.813
999.77
999.749
999.729
999.694
999.636
999.549
999.426
999.259
999.041
998.762
998.414
997.989
997.481
996.886
996.207
995.456
994.66
999.995
999.952
999.937
999.957
999.984
999.994
999.977
999.925
999.835
999.702
999.521
999.283
998.983
998.612
998.164
997.631
997.012
996.309
995.535
994.717
1000.16
1000.22
1000.27
1000.32
1000.35
1000.35
1000.32
1000.24
1000.13
999.973
999.767
999.506
999.182
998.788
998.316
997.762
997.12
996.396
995.602
994.767
1000
999.98
1000
1000.06
1000.11
1000.14
1000.14
1000.09
1000.01
999.873
999.69
999.447
999.139
998.759
998.298
997.752
997.117
996.398
995.608
994.779
999.993
999.955
999.946
999.969
999.995
1000
999.987
999.941
999.86
999.738
999.567
999.339
999.045
998.679
998.232
997.699
997.077
996.37
995.591
994.773
1000.02
1000.02
1000.05
1000.09
1000.11
1000.11
1000.07
1000.01
999.914
999.775
999.586
999.342
999.033
998.652
998.191
997.645
997.013
996.298
995.514
994.694
1000.06
1000.16
1000.26
1000.33
1000.35
1000.33
1000.28
1000.18
1000.04
999.857
999.619
999.323
998.964
998.535
998.03
997.445
996.779
996.036
995.232
994.4
1000.19
1000.43
1000.56
1000.58
1000.52
1000.41
1000.27
1000.09
999.874
999.614
999.308
998.95
998.534
998.054
997.505
996.882
996.186
995.421
994.603
993.767
1000.15
1000.37
1000.43
1000.36
1000.2
999.996
999.755
999.482
999.177
998.838
998.462
998.042
997.573
997.05
996.465
995.815
995.101
994.326
993.509
992.684
999.676
999.257
998.894
998.59
998.312
998.038
997.759
997.466
997.154
996.816
996.445
996.036
995.582
995.076
994.513
993.89
993.205
992.466
991.69
990.914
999.677
999.267
998.919
998.638
998.391
998.157
997.927
997.695
997.456
997.206
996.942
996.659
996.355
996.028
995.675
995.299
994.901
994.491
994.084
993.711
1000.15
1000.39
1000.46
1000.41
1000.29
1000.12
999.928
999.716
999.485
999.235
998.965
998.672
998.355
998.012
997.641
997.243
996.822
996.387
995.952
995.549
1000.2
1000.44
1000.59
1000.63
1000.6
1000.54
1000.44
1000.32
1000.18
1000
999.798
999.564
999.297
998.996
998.66
998.29
997.89
997.469
997.043
996.641
1000.07
1000.18
1000.29
1000.38
1000.43
1000.45
1000.44
1000.39
1000.32
1000.21
1000.07
999.893
999.679
999.426
999.134
998.803
998.437
998.045
997.643
997.26
1000.02
1000.04
1000.09
1000.14
1000.17
1000.19
1000.19
1000.17
1000.12
1000.05
999.955
999.824
999.658
999.454
999.208
998.923
998.599
998.246
997.879
997.527
999.999
999.971
999.957
999.965
999.98
999.989
999.985
999.968
999.934
999.879
999.799
999.69
999.547
999.367
999.147
998.888
998.591
998.263
997.921
997.592
999.986
999.931
999.896
999.899
999.921
999.943
999.954
999.95
999.927
999.881
999.809
999.707
999.57
999.396
999.183
998.929
998.638
998.317
997.979
997.655
999.995
999.958
999.957
999.998
1000.05
1000.1
1000.13
1000.14
1000.13
1000.09
1000.02
999.915
999.777
999.6
999.384
999.127
998.832
998.507
998.164
997.832
1000.14
1000.17
1000.2
1000.25
1000.3
1000.35
1000.37
1000.37
1000.35
1000.31
1000.24
1000.14
1000
999.831
999.618
999.365
999.074
998.749
998.405
998.069
999.984
999.928
999.918
999.967
1000.05
1000.13
1000.2
1000.25
1000.27
1000.27
1000.24
1000.17
1000.06
999.916
999.725
999.49
999.213
998.9
998.563
998.231
999.984
999.928
999.918
999.967
1000.05
1000.13
1000.2
1000.25
1000.27
1000.27
1000.24
1000.17
1000.06
999.916
999.725
999.49
999.213
998.9
998.563
998.231
1000.14
1000.17
1000.2
1000.25
1000.3
1000.35
1000.37
1000.37
1000.35
1000.31
1000.24
1000.14
1000
999.831
999.618
999.365
999.074
998.749
998.405
998.069
999.995
999.958
999.957
999.998
1000.05
1000.1
1000.13
1000.14
1000.13
1000.09
1000.02
999.915
999.777
999.6
999.384
999.127
998.832
998.507
998.164
997.832
999.986
999.931
999.896
999.899
999.921
999.943
999.954
999.95
999.927
999.881
999.809
999.707
999.57
999.396
999.183
998.929
998.638
998.317
997.979
997.655
999.999
999.971
999.957
999.965
999.98
999.989
999.985
999.968
999.934
999.879
999.799
999.69
999.547
999.367
999.147
998.888
998.591
998.263
997.921
997.592
1000.02
1000.04
1000.09
1000.14
1000.17
1000.19
1000.19
1000.17
1000.12
1000.05
999.955
999.824
999.658
999.454
999.208
998.923
998.599
998.246
997.879
997.527
1000.07
1000.18
1000.29
1000.38
1000.43
1000.45
1000.44
1000.39
1000.32
1000.21
1000.07
999.893
999.679
999.426
999.134
998.803
998.437
998.045
997.643
997.26
1000.2
1000.44
1000.59
1000.63
1000.6
1000.54
1000.44
1000.32
1000.18
1000
999.798
999.564
999.297
998.996
998.66
998.29
997.89
997.469
997.043
996.641
1000.15
1000.39
1000.46
1000.41
1000.29
1000.12
999.928
999.716
999.485
999.235
998.965
998.672
998.355
998.012
997.641
997.243
996.822
996.387
995.952
995.549
999.677
999.267
998.919
998.638
998.391
998.157
997.927
997.695
997.456
997.206
996.942
996.659
996.355
996.028
995.675
995.299
994.901
994.491
994.084
993.711
999.679
999.276
998.944
998.686
998.47
998.276
998.095
997.924
997.759
997.598
997.439
997.281
997.123
996.967
996.814
996.666
996.53
996.411
996.325
996.286
1000.15
1000.4
1000.49
1000.46
1000.37
1000.24
1000.1
999.953
999.797
999.637
999.474
999.309
999.142
998.974
998.807
998.645
998.493
998.36
998.259
998.209
1000.2
1000.45
1000.62
1000.69
1000.69
1000.66
1000.62
1000.56
1000.49
1000.41
1000.31
1000.2
1000.09
999.963
999.833
999.702
999.577
999.465
999.382
999.347
1000.07
1000.19
1000.33
1000.44
1000.52
1000.58
1000.61
1000.63
1000.63
1000.61
1000.58
1000.52
1000.46
1000.38
1000.3
1000.21
1000.13
1000.05
1000
1000
1000.02
1000.06
1000.12
1000.19
1000.26
1000.31
1000.35
1000.39
1000.41
1000.43
1000.43
1000.43
1000.41
1000.39
1000.35
1000.32
1000.28
1000.25
1000.25
1000.3
1000
999.989
999.989
1000.01
1000.05
1000.08
1000.11
1000.14
1000.17
1000.2
1000.22
1000.24
1000.24
1000.25