/*--------------------------------*- C++ -*----------------------------------*\
  =========                 |
  \\      /  F ield         | OpenFOAM: The Open Source CFD Toolbox
   \\    /   O peration     | Website:  https://openfoam.org
    \\  /    A nd           | Version:  10
     \\/     M anipulation  |
\*---------------------------------------------------------------------------*/
FoamFile
{
    format      ascii;
    class       volVectorField;
    location    "150";
    object      U;
}
// * * * * * * * * * * * * * * * * * * * * * * * * * * * * * * * * * * * * * //

dimensions      [0 1 -1 0 0 0 0];

internalField   nonuniform List<vector> 
112000
(
(277.088 -11.1903 11.1117)
(279.365 -8.80877 8.6451)
(280.611 -7.40168 7.15126)
(281.039 -6.44611 6.1078)
(281.256 -5.7284 5.29938)
(281.571 -5.17501 4.65031)
(282.088 -4.74897 4.12046)
(282.863 -4.42428 3.67965)
(283.961 -4.18412 3.30575)
(285.461 -4.02035 2.98354)
(287.458 -3.93196 2.7024)
(290.061 -3.92385 2.45443)
(293.412 -4.00738 2.23333)
(297.699 -4.20292 2.03382)
(303.176 -4.54551 1.85101)
(310.21 -5.09678 1.67982)
(319.361 -5.97207 1.51403)
(331.564 -7.40706 1.34452)
(348.272 -9.93915 1.14844)
(377.104 -14.9114 0.973488)
(278.232 -12.1769 -2.82887)
(279.966 -9.24349 -4.29168)
(281.495 -7.36414 -4.66139)
(282.773 -6.09836 -4.63869)
(284.006 -5.18462 -4.50201)
(285.354 -4.50824 -4.31905)
(286.892 -4.01138 -4.11072)
(288.669 -3.65681 -3.89336)
(290.741 -3.41998 -3.67891)
(293.181 -3.28656 -3.47373)
(296.074 -3.25035 -3.28076)
(299.527 -3.31221 -3.10163)
(303.676 -3.48036 -2.93785)
(308.7 -3.77257 -2.79133)
(314.849 -4.22135 -2.66497)
(322.477 -4.88522 -2.56347)
(332.129 -5.87468 -2.49459)
(344.721 -7.41549 -2.47171)
(361.661 -10.0312 -2.52257)
(390.632 -15.0062 -2.64533)
(278.028 -12.1404 0.387448)
(279.898 -9.08322 0.754888)
(281.801 -7.06409 1.0856)
(283.673 -5.6967 1.3119)
(285.533 -4.72041 1.41927)
(287.459 -4.00562 1.44078)
(289.518 -3.48596 1.40921)
(291.768 -3.12065 1.34308)
(294.272 -2.8827 1.25191)
(297.105 -2.75553 1.14143)
(300.356 -2.73108 1.01514)
(304.134 -2.8087 0.874424)
(308.576 -2.99546 0.718431)
(313.864 -3.30812 0.544041)
(320.245 -3.77811 0.345485)
(328.075 -4.46273 0.113554)
(337.897 -5.47082 -0.165933)
(350.629 -7.02524 -0.515031)
(367.659 -9.64751 -0.972179)
(396.772 -14.6189 -1.56063)
(278.269 -12.1145 -0.055857)
(280.494 -9.09886 -0.319742)
(282.625 -7.12663 -0.660524)
(284.63 -5.79888 -0.971109)
(286.595 -4.86236 -1.22491)
(288.62 -4.18705 -1.42517)
(290.783 -3.70373 -1.57981)
(293.148 -3.37019 -1.69819)
(295.779 -3.15904 -1.7904)
(298.748 -3.05353 -1.86603)
(302.143 -3.04552 -1.93376)
(306.07 -3.13435 -2.00173)
(310.664 -3.32699 -2.07825)
(316.107 -3.64008 -2.17253)
(322.646 -4.1048 -2.29551)
(330.637 -4.77803 -2.46097)
(340.627 -5.76796 -2.68718)
(353.54 -7.29633 -2.99948)
(370.769 -9.88402 -3.43621)
(400.242 -14.8134 -4.02394)
(278.268 -12.0829 -0.0893353)
(280.477 -9.06173 -0.200572)
(282.544 -7.08009 -0.286612)
(284.481 -5.72536 -0.327056)
(286.414 -4.75269 -0.33541)
(288.448 -4.03991 -0.333247)
(290.65 -3.52067 -0.33453)
(293.075 -3.15376 -0.346378)
(295.782 -2.91247 -0.373044)
(298.84 -2.7804 -0.417849)
(302.331 -2.74931 -0.483906)
(306.363 -2.81817 -0.574735)
(311.07 -2.99337 -0.694946)
(316.634 -3.29078 -0.850944)
(323.306 -3.74079 -1.05168)
(331.445 -4.39935 -1.30967)
(341.604 -5.37368 -1.64238)
(354.718 -6.88445 -2.07437)
(372.185 -9.45166 -2.64132)
(402.029 -14.3578 -3.36997)
(278.268 -12.0711 -0.0874565)
(280.476 -9.04802 -0.185093)
(282.548 -7.07124 -0.280416)
(284.498 -5.72084 -0.372951)
(286.453 -4.75265 -0.465178)
(288.516 -4.04686 -0.559539)
(290.749 -3.53726 -0.656329)
(293.207 -3.18152 -0.754994)
(295.949 -2.95174 -0.855853)
(299.044 -2.83061 -0.960638)
(302.578 -2.80915 -1.07239)
(306.659 -2.88568 -1.19541)
(311.423 -3.06602 -1.33541)
(317.054 -3.3656 -1.49986)
(323.804 -3.81433 -1.69852)
(332.037 -4.46771 -1.9441)
(342.311 -5.4325 -2.25337)
(355.57 -6.92873 -2.64845)
(373.22 -9.47582 -3.1592)
(403.374 -14.358 -3.81018)
(278.266 -12.0653 -0.0723898)
(280.467 -9.03934 -0.150226)
(282.53 -7.06317 -0.221573)
(284.469 -5.71263 -0.285169)
(286.415 -4.74136 -0.341653)
(288.469 -4.03002 -0.392972)
(290.697 -3.51316 -0.441513)
(293.154 -3.14882 -0.48996)
(295.9 -2.90935 -0.541461)
(299.007 -2.77774 -0.599628)
(302.56 -2.74534 -0.668486)
(306.667 -2.81068 -0.752565)
(311.467 -2.97972 -0.857158)
(317.144 -3.26787 -0.988731)
(323.952 -3.70497 -1.15543)
(332.26 -4.34633 -1.36768)
(342.629 -5.29841 -1.63897)
(356.008 -6.78077 -1.98678)
(373.809 -9.31218 -2.43375)
(404.195 -14.1786 -3.00052)
(278.264 -12.0623 -0.0529863)
(280.46 -9.03434 -0.109718)
(282.517 -7.05846 -0.161341)
(284.452 -5.70888 -0.208067)
(286.396 -4.73787 -0.252065)
(288.451 -4.02618 -0.295866)
(290.684 -3.50899 -0.341431)
(293.149 -3.14466 -0.390272)
(295.906 -2.90558 -0.443891)
(299.026 -2.77463 -0.504043)
(302.596 -2.74301 -0.572872)
(306.724 -2.80904 -0.653053)
(311.55 -2.97848 -0.748019)
(317.26 -3.26649 -0.862235)
(324.109 -3.70264 -1.00152)
(332.468 -4.34198 -1.17342)
(342.903 -5.29067 -1.38764)
(356.367 -6.76786 -1.65657)
(374.275 -9.29179 -1.99563)
(404.834 -14.1507 -2.42173)
(278.263 -12.0608 -0.0321192)
(280.456 -9.0317 -0.0665347)
(282.508 -7.05583 -0.0978162)
(284.439 -5.70684 -0.126038)
(286.382 -4.73604 -0.152505)
(288.437 -4.02389 -0.17862)
(290.671 -3.50574 -0.20531)
(293.137 -3.14008 -0.233274)
(295.897 -2.89928 -0.26337)
(299.022 -2.7662 -0.296794)
(302.599 -2.73202 -0.335097)
(306.737 -2.79507 -0.380223)
(311.577 -2.96111 -0.43459)
(317.306 -3.2453 -0.501231)
(324.18 -3.67722 -0.583959)
(332.573 -4.31186 -0.687566)
(343.05 -5.2553 -0.818056)
(356.57 -6.72647 -0.982921)
(374.55 -9.24317 -1.19097)
(405.215 -14.0956 -1.45444)
(278.263 -12.0601 -0.0107538)
(280.454 -9.03059 -0.0222873)
(282.504 -7.05471 -0.0327864)
(284.433 -5.70599 -0.0422619)
(286.375 -4.73537 -0.0511731)
(288.431 -4.02314 -0.0600483)
(290.666 -3.50472 -0.0692718)
(293.134 -3.13871 -0.0791539)
(295.896 -2.89755 -0.0900564)
(299.024 -2.76411 -0.102439)
(302.606 -2.72954 -0.116853)
(306.751 -2.7922 -0.133951)
(311.598 -2.9578 -0.154513)
(317.337 -3.24148 -0.179498)
(324.225 -3.67274 -0.210113)
(332.635 -4.30653 -0.247877)
(343.134 -5.24878 -0.294702)
(356.681 -6.71829 -0.352985)
(374.697 -9.23243 -0.425447)
(405.415 -14.0831 -0.517004)
(278.263 -12.0601 0.0107438)
(280.454 -9.03059 0.0222783)
(282.504 -7.05471 0.0327692)
(284.433 -5.70599 0.0422345)
(286.375 -4.73537 0.0511363)
(288.431 -4.02314 0.0600031)
(290.666 -3.50472 0.0692186)
(293.134 -3.13871 0.0790936)
(295.896 -2.89755 0.0899905)
(299.024 -2.76411 0.102368)
(302.606 -2.72954 0.116778)
(306.751 -2.7922 0.13387)
(311.598 -2.9578 0.154425)
(317.337 -3.24148 0.179404)
(324.225 -3.67274 0.210012)
(332.635 -4.30653 0.247769)
(343.134 -5.24878 0.294586)
(356.681 -6.71829 0.35286)
(374.697 -9.23243 0.425311)
(405.415 -14.0831 0.516855)
(278.263 -12.0608 0.0321094)
(280.456 -9.0317 0.066526)
(282.508 -7.05583 0.0977994)
(284.439 -5.70684 0.126011)
(286.382 -4.73604 0.152468)
(288.437 -4.02389 0.178574)
(290.671 -3.50574 0.205256)
(293.137 -3.14007 0.233213)
(295.897 -2.89928 0.263304)
(299.022 -2.7662 0.296723)
(302.599 -2.73202 0.335022)
(306.737 -2.79507 0.380142)
(311.577 -2.96111 0.434504)
(317.306 -3.2453 0.501138)
(324.18 -3.67722 0.583858)
(332.573 -4.31186 0.687457)
(343.05 -5.2553 0.817938)
(356.57 -6.72647 0.982794)
(374.55 -9.24317 1.19084)
(405.215 -14.0956 1.45429)
(278.264 -12.0623 0.0529772)
(280.46 -9.03434 0.10971)
(282.517 -7.05846 0.161326)
(284.452 -5.70888 0.208042)
(286.396 -4.73787 0.252029)
(288.451 -4.02618 0.295822)
(290.684 -3.50899 0.341378)
(293.149 -3.14466 0.390213)
(295.906 -2.90558 0.443826)
(299.026 -2.77463 0.503974)
(302.596 -2.743 0.572797)
(306.724 -2.80904 0.652973)
(311.55 -2.97848 0.747933)
(317.26 -3.26649 0.862143)
(324.109 -3.70264 1.00142)
(332.468 -4.34198 1.17332)
(342.903 -5.29067 1.38753)
(356.367 -6.76786 1.65644)
(374.275 -9.29179 1.9955)
(404.834 -14.1507 2.42159)
(278.266 -12.0653 0.0723816)
(280.467 -9.03934 0.150219)
(282.53 -7.06317 0.221558)
(284.469 -5.71263 0.285144)
(286.415 -4.74136 0.341618)
(288.469 -4.03002 0.392927)
(290.697 -3.51316 0.441458)
(293.154 -3.14882 0.4899)
(295.9 -2.90935 0.541397)
(299.007 -2.77774 0.59956)
(302.56 -2.74534 0.668414)
(306.667 -2.81068 0.752486)
(311.467 -2.97972 0.857073)
(317.144 -3.26787 0.988641)
(323.952 -3.70497 1.15533)
(332.26 -4.34633 1.36757)
(342.629 -5.29841 1.63886)
(356.008 -6.78077 1.98666)
(373.809 -9.31218 2.43361)
(404.195 -14.1786 3.00037)
(278.268 -12.0711 0.0874497)
(280.476 -9.04802 0.185088)
(282.548 -7.07124 0.280404)
(284.498 -5.72084 0.372929)
(286.453 -4.75265 0.465145)
(288.516 -4.04685 0.559496)
(290.749 -3.53725 0.656276)
(293.207 -3.18152 0.754934)
(295.949 -2.95174 0.85579)
(299.044 -2.83061 0.960572)
(302.578 -2.80915 1.07232)
(306.659 -2.88568 1.19534)
(311.423 -3.06602 1.33533)
(317.054 -3.3656 1.49978)
(323.803 -3.81432 1.69843)
(332.037 -4.46771 1.94401)
(342.311 -5.4325 2.25327)
(355.57 -6.92873 2.64834)
(373.22 -9.47582 3.15908)
(403.374 -14.358 3.81005)
(278.268 -12.0829 0.0893304)
(280.477 -9.06173 0.200568)
(282.544 -7.08009 0.286602)
(284.481 -5.72536 0.327037)
(286.414 -4.75269 0.335379)
(288.448 -4.03991 0.333205)
(290.65 -3.52066 0.334481)
(293.075 -3.15376 0.346324)
(295.782 -2.91247 0.372985)
(298.84 -2.78039 0.417783)
(302.331 -2.74931 0.483835)
(306.363 -2.81817 0.574658)
(311.07 -2.99336 0.694864)
(316.634 -3.29078 0.850857)
(323.306 -3.74078 1.05159)
(331.445 -4.39935 1.30957)
(341.604 -5.37368 1.64227)
(354.718 -6.88445 2.07427)
(372.185 -9.45165 2.6412)
(402.029 -14.3578 3.36985)
(278.269 -12.1145 0.0558548)
(280.494 -9.09886 0.319741)
(282.625 -7.12663 0.660519)
(284.63 -5.79888 0.971095)
(286.595 -4.86236 1.22488)
(288.62 -4.18704 1.42513)
(290.783 -3.70372 1.57976)
(293.148 -3.37019 1.69815)
(295.779 -3.15904 1.79036)
(298.748 -3.05353 1.86599)
(302.143 -3.04552 1.93371)
(306.07 -3.13434 2.00168)
(310.664 -3.32699 2.07819)
(316.107 -3.64007 2.17246)
(322.646 -4.10479 2.29544)
(330.637 -4.77803 2.4609)
(340.627 -5.76796 2.68709)
(353.54 -7.29632 2.99939)
(370.769 -9.88401 3.43612)
(400.242 -14.8134 4.02383)
(278.028 -12.1404 -0.387447)
(279.898 -9.08322 -0.754885)
(281.801 -7.06409 -1.08559)
(283.673 -5.6967 -1.3119)
(285.533 -4.7204 -1.4193)
(287.459 -4.0056 -1.44083)
(289.518 -3.48595 -1.40926)
(291.768 -3.12064 -1.34314)
(294.272 -2.8827 -1.25196)
(297.105 -2.75553 -1.14148)
(300.356 -2.73107 -1.0152)
(304.134 -2.80869 -0.874483)
(308.576 -2.99545 -0.718492)
(313.864 -3.30811 -0.544103)
(320.245 -3.7781 -0.345549)
(328.075 -4.46272 -0.113621)
(337.897 -5.47081 0.165863)
(350.629 -7.02524 0.514957)
(367.659 -9.6475 0.9721)
(396.772 -14.6189 1.56054)
(278.232 -12.1769 2.82887)
(279.966 -9.2435 4.29169)
(281.495 -7.36415 4.66141)
(282.773 -6.09837 4.63871)
(284.006 -5.18461 4.50201)
(285.354 -4.50821 4.31903)
(286.892 -4.01135 4.1107)
(288.669 -3.65678 3.89334)
(290.741 -3.41997 3.67889)
(293.181 -3.28655 3.47371)
(296.074 -3.25033 3.28073)
(299.527 -3.31219 3.1016)
(303.676 -3.48034 2.93782)
(308.701 -3.77256 2.7913)
(314.849 -4.22133 2.66494)
(322.477 -4.88521 2.56343)
(332.129 -5.87467 2.49455)
(344.721 -7.41548 2.47167)
(361.661 -10.0312 2.52253)
(390.633 -15.0061 2.64529)
(277.088 -11.1903 -11.1117)
(279.365 -8.80878 -8.64509)
(280.611 -7.40169 -7.15124)
(281.039 -6.44613 -6.10778)
(281.256 -5.7284 -5.29936)
(281.571 -5.17499 -4.6503)
(282.088 -4.74895 -4.12045)
(282.863 -4.42427 -3.67963)
(283.961 -4.18411 -3.30573)
(285.461 -4.02033 -2.98353)
(287.458 -3.93194 -2.70239)
(290.061 -3.92383 -2.45442)
(293.412 -4.00736 -2.23333)
(297.699 -4.2029 -2.03381)
(303.176 -4.54549 -1.851)
(310.21 -5.09676 -1.67982)
(319.361 -5.97205 -1.51403)
(331.564 -7.40705 -1.34453)
(348.272 -9.93914 -1.14845)
(377.104 -14.9114 -0.973505)
(278.22 2.58362 12.0894)
(279.915 3.7749 9.05714)
(281.387 3.87669 7.0754)
(282.595 3.57584 5.70133)
(283.743 3.14111 4.67059)
(284.993 2.62942 3.86495)
(286.419 2.04997 3.22242)
(288.068 1.40627 2.70099)
(289.996 0.695187 2.27006)
(292.274 -0.0956231 1.90742)
(294.982 -0.987576 1.59714)
(298.217 -2.01177 1.32695)
(302.104 -3.21133 1.08707)
(306.802 -4.64795 0.869265)
(312.52 -6.41406 0.666022)
(319.542 -8.656 0.469874)
(328.259 -11.6199 0.272556)
(339.212 -15.7477 0.0635475)
(352.978 -21.9027 -0.1687)
(371.904 -31.6647 -0.389494)
(321.004 1.30146 -1.53751)
(318.309 1.96299 -2.46403)
(316.434 1.89907 -2.67787)
(315.322 1.50749 -2.58053)
(314.785 1.00928 -2.39975)
(314.723 0.467579 -2.2071)
(315.092 -0.108795 -2.02146)
(315.873 -0.722745 -1.85196)
(317.073 -1.38304 -1.7041)
(318.723 -2.10557 -1.58047)
(320.877 -2.91378 -1.48253)
(323.613 -3.83919 -1.41112)
(327.037 -4.92458 -1.36743)
(331.294 -6.23012 -1.35365)
(336.58 -7.84496 -1.37368)
(343.166 -9.90905 -1.43409)
(351.432 -12.6572 -1.54528)
(361.913 -16.5121 -1.72412)
(375.173 -22.321 -1.98979)
(393.519 -31.5429 -2.32226)
(322.957 0.553607 0.298206)
(321.846 0.905489 0.508598)
(321.287 0.812751 0.646331)
(321.296 0.459787 0.706438)
(321.679 0.017156 0.695865)
(322.343 -0.45507 0.635824)
(323.276 -0.952183 0.547143)
(324.498 -1.48353 0.442103)
(326.045 -2.06235 0.326149)
(327.97 -2.70623 0.201335)
(330.34 -3.43841 0.0677917)
(333.244 -4.28963 -0.076082)
(336.795 -5.30158 -0.233678)
(341.144 -6.53293 -0.410354)
(346.49 -8.07046 -0.613876)
(353.11 -10.0506 -0.855155)
(361.384 -12.7031 -1.14941)
(371.851 -16.4434 -1.51829)
(385.07 -22.114 -1.98996)
(403.35 -31.134 -2.56066)
(323.28 0.552484 -0.11623)
(322.693 0.791681 -0.297087)
(322.648 0.597472 -0.516439)
(323.097 0.156702 -0.713629)
(323.875 -0.369054 -0.863999)
(324.908 -0.912566 -0.972246)
(326.186 -1.46257 -1.05001)
(327.732 -2.02752 -1.10826)
(329.584 -2.62245 -1.1566)
(331.792 -3.26713 -1.20342)
(334.426 -3.98694 -1.25602)
(337.575 -4.81438 -1.32125)
(341.355 -5.79226 -1.40627)
(345.916 -6.97973 -1.5192)
(351.462 -8.46338 -1.66995)
(358.271 -10.3787 -1.87117)
(366.727 -12.9537 -2.13959)
(377.378 -16.5999 -2.49791)
(390.782 -22.1571 -2.97647)
(409.311 -31.0342 -3.58327)
(323.271 0.644004 -0.113399)
(322.712 0.862035 -0.210159)
(322.733 0.636325 -0.286427)
(323.279 0.192219 -0.34349)
(324.189 -0.321184 -0.385051)
(325.388 -0.847439 -0.419934)
(326.858 -1.37797 -0.456278)
(328.608 -1.92196 -0.499207)
(330.669 -2.49525 -0.552063)
(333.089 -3.1182 -0.617787)
(335.933 -3.81616 -0.699604)
(339.291 -4.62119 -0.801481)
(343.277 -5.57531 -0.928595)
(348.046 -6.73661 -1.08785)
(353.801 -8.19045 -1.28848)
(360.826 -10.0708 -1.54288)
(369.51 -12.6036 -1.86769)
(380.408 -16.1979 -2.28524)
(394.084 -21.6904 -2.82502)
(412.964 -30.4855 -3.4988)
(323.263 0.683076 -0.0942726)
(322.696 0.896531 -0.183191)
(322.73 0.648219 -0.262282)
(323.31 0.188175 -0.339461)
(324.267 -0.335956 -0.416963)
(325.524 -0.873555 -0.49419)
(327.061 -1.4168 -0.570996)
(328.888 -1.97308 -0.648258)
(331.035 -2.55664 -0.727807)
(333.549 -3.18679 -0.812416)
(336.497 -3.88813 -0.905799)
(339.965 -4.6921 -1.01268)
(344.072 -5.64013 -1.13897)
(348.971 -6.78973 -1.29214)
(354.87 -8.22559 -1.48172)
(362.055 -10.0809 -1.71991)
(370.92 -12.5804 -2.02255)
(382.03 -16.1316 -2.41022)
(395.952 -21.5698 -2.90936)
(415.179 -30.2989 -3.53348)
(323.258 0.70129 -0.0729989)
(322.679 0.920052 -0.144539)
(322.704 0.665806 -0.206116)
(323.283 0.201535 -0.261619)
(324.244 -0.320911 -0.314516)
(325.51 -0.853004 -0.365985)
(327.063 -1.38878 -0.416986)
(328.913 -1.93611 -0.46933)
(331.092 -2.50935 -0.525553)
(333.646 -3.12805 -0.58865)
(336.642 -3.81703 -0.662046)
(340.169 -4.60782 -0.749771)
(344.344 -5.54175 -0.856727)
(349.323 -6.67609 -0.989057)
(355.315 -8.0951 -1.15459)
(362.609 -9.93139 -1.3634)
(371.606 -12.4091 -1.62849)
(382.873 -15.9346 -1.96665)
(396.985 -21.3423 -2.39918)
(416.475 -30.0363 -2.93847)
(323.255 0.710958 -0.0518189)
(322.667 0.934832 -0.10371)
(322.685 0.678486 -0.14881)
(323.259 0.210356 -0.189169)
(324.222 -0.313804 -0.228483)
(325.493 -0.845707 -0.268866)
(327.053 -1.38072 -0.311198)
(328.914 -1.92729 -0.356343)
(331.107 -2.49973 -0.405613)
(333.68 -3.11736 -0.460749)
(336.7 -3.8048 -0.523916)
(340.257 -4.59332 -0.597825)
(344.469 -5.52397 -0.685951)
(349.492 -6.65368 -0.792777)
(355.54 -8.06637 -0.9241)
(362.902 -9.89426 -1.08739)
(371.982 -12.3611 -1.29224)
(383.354 -15.8727 -1.55096)
(397.596 -21.2632 -1.87901)
(417.274 -29.9389 -2.28721)
(323.253 0.716024 -0.0308993)
(322.66 0.943201 -0.0622026)
(322.672 0.686362 -0.089719)
(323.244 0.216131 -0.114171)
(324.206 -0.309094 -0.137766)
(325.478 -0.840428 -0.162013)
(327.04 -1.37379 -0.187469)
(328.904 -1.91806 -0.214539)
(331.103 -2.4876 -0.243971)
(333.684 -3.10168 -0.276885)
(336.715 -3.78492 -0.314723)
(340.286 -4.56859 -0.359279)
(344.517 -5.49374 -0.412807)
(349.565 -6.61729 -0.478163)
(355.644 -8.02312 -0.558982)
(363.046 -9.84336 -0.659889)
(372.177 -12.3016 -0.78676)
(383.614 -15.8037 -0.947081)
(397.936 -21.1834 -1.15008)
(417.73 -29.8496 -1.40339)
(323.253 0.718212 -0.0102657)
(322.657 0.946973 -0.0207211)
(322.666 0.690125 -0.029981)
(323.236 0.218989 -0.0382021)
(324.199 -0.306845 -0.0461109)
(325.471 -0.838084 -0.054279)
(327.034 -1.37088 -0.0629511)
(328.9 -1.91438 -0.0722932)
(331.101 -2.48304 -0.0825778)
(333.685 -3.09611 -0.0942023)
(336.721 -3.7782 -0.107663)
(340.3 -4.56055 -0.123563)
(344.539 -5.48419 -0.142643)
(349.599 -6.60597 -0.165843)
(355.692 -8.00971 -0.194355)
(363.113 -9.82745 -0.229701)
(372.268 -12.2827 -0.273823)
(383.735 -15.7812 -0.329207)
(398.097 -21.1565 -0.398905)
(417.947 -29.8198 -0.48591)
(323.253 0.718212 0.0102565)
(322.657 0.946973 0.0207111)
(322.666 0.690125 0.0299632)
(323.236 0.21899 0.0381743)
(324.199 -0.306844 0.0460748)
(325.471 -0.838084 0.0542355)
(327.034 -1.37088 0.0629005)
(328.9 -1.91438 0.0722362)
(331.101 -2.48304 0.0825155)
(333.685 -3.09611 0.0941358)
(336.721 -3.7782 0.107593)
(340.3 -4.56055 0.123486)
(344.539 -5.48419 0.142561)
(349.599 -6.60597 0.165753)
(355.692 -8.00971 0.194258)
(363.113 -9.82745 0.229597)
(372.268 -12.2827 0.27371)
(383.735 -15.7812 0.329085)
(398.097 -21.1565 0.398772)
(417.947 -29.8198 0.485764)
(323.253 0.716024 0.0308904)
(322.66 0.943202 0.0621928)
(322.672 0.686362 0.0897016)
(323.244 0.216132 0.114143)
(324.206 -0.309093 0.13773)
(325.478 -0.840426 0.161969)
(327.04 -1.37379 0.187418)
(328.904 -1.91806 0.214482)
(331.103 -2.4876 0.243908)
(333.684 -3.10168 0.276818)
(336.715 -3.78492 0.314652)
(340.286 -4.56859 0.359204)
(344.517 -5.49374 0.412725)
(349.565 -6.61729 0.478074)
(355.644 -8.02312 0.558886)
(363.046 -9.84336 0.659784)
(372.177 -12.3016 0.786646)
(383.614 -15.8037 0.946957)
(397.936 -21.1834 1.14995)
(417.73 -29.8496 1.40324)
(323.255 0.710959 0.0518105)
(322.667 0.934833 0.103701)
(322.685 0.678487 0.148794)
(323.259 0.210358 0.189142)
(324.222 -0.313802 0.228447)
(325.493 -0.845703 0.268822)
(327.053 -1.38071 0.311147)
(328.914 -1.92728 0.356286)
(331.107 -2.49972 0.405552)
(333.68 -3.11735 0.460684)
(336.7 -3.8048 0.523845)
(340.257 -4.59332 0.597749)
(344.469 -5.52397 0.685869)
(349.492 -6.65368 0.792689)
(355.54 -8.06637 0.924005)
(362.902 -9.89426 1.08729)
(371.982 -12.3611 1.29213)
(383.354 -15.8727 1.55084)
(397.596 -21.2632 1.87888)
(417.274 -29.9389 2.28706)
(323.258 0.701291 0.0729913)
(322.679 0.920053 0.144531)
(322.704 0.665807 0.2061)
(323.283 0.201538 0.261594)
(324.244 -0.320906 0.314481)
(325.51 -0.852998 0.36594)
(327.063 -1.38877 0.416932)
(328.913 -1.9361 0.469271)
(331.092 -2.50935 0.525492)
(333.646 -3.12805 0.588586)
(336.642 -3.81703 0.661978)
(340.169 -4.60781 0.749697)
(344.344 -5.54175 0.856647)
(349.323 -6.67608 0.98897)
(355.315 -8.0951 1.1545)
(362.609 -9.93138 1.3633)
(371.606 -12.4091 1.62838)
(382.873 -15.9346 1.96653)
(396.985 -21.3423 2.39905)
(416.475 -30.0363 2.93832)
(323.263 0.683078 0.0942663)
(322.696 0.896532 0.183185)
(322.73 0.648221 0.262269)
(323.31 0.188179 0.339438)
(324.267 -0.33595 0.41693)
(325.524 -0.873545 0.494146)
(327.061 -1.41678 0.570943)
(328.888 -1.97307 0.6482)
(331.035 -2.55664 0.727746)
(333.549 -3.18678 0.812352)
(336.497 -3.88813 0.905732)
(339.965 -4.6921 1.0126)
(344.072 -5.64013 1.13889)
(348.971 -6.78973 1.29206)
(354.87 -8.22559 1.48163)
(362.055 -10.0809 1.71981)
(370.92 -12.5804 2.02245)
(382.03 -16.1316 2.41011)
(395.952 -21.5698 2.90925)
(415.179 -30.2989 3.53335)
(323.271 0.644005 0.113395)
(322.712 0.862036 0.210155)
(322.733 0.636326 0.286417)
(323.279 0.192223 0.34347)
(324.189 -0.321177 0.385017)
(325.388 -0.847427 0.419889)
(326.858 -1.37796 0.456226)
(328.608 -1.92195 0.499154)
(330.669 -2.49525 0.552008)
(333.089 -3.11819 0.617726)
(335.933 -3.81615 0.699537)
(339.291 -4.62118 0.801409)
(343.277 -5.5753 0.928518)
(348.045 -6.7366 1.08777)
(353.801 -8.19045 1.28839)
(360.826 -10.0708 1.54278)
(369.51 -12.6036 1.86759)
(380.408 -16.1979 2.28514)
(394.084 -21.6904 2.82491)
(412.964 -30.4855 3.49868)
(323.28 0.552485 0.116229)
(322.693 0.791681 0.297086)
(322.648 0.597472 0.516435)
(323.097 0.156707 0.713616)
(323.875 -0.369043 0.863966)
(324.908 -0.912549 0.972196)
(326.186 -1.46255 1.04996)
(327.732 -2.02751 1.10821)
(329.584 -2.62244 1.15656)
(331.792 -3.26712 1.20337)
(334.426 -3.98693 1.25596)
(337.575 -4.81437 1.32119)
(341.355 -5.79225 1.40621)
(345.916 -6.97972 1.51913)
(351.462 -8.46337 1.66988)
(358.271 -10.3787 1.87109)
(366.727 -12.9537 2.13951)
(377.378 -16.5999 2.49782)
(390.782 -22.1571 2.97637)
(409.311 -31.0342 3.58316)
(322.957 0.553607 -0.298203)
(321.846 0.905488 -0.508592)
(321.287 0.812749 -0.64632)
(321.296 0.459791 -0.706437)
(321.679 0.0171737 -0.695894)
(322.343 -0.455041 -0.63588)
(323.276 -0.952156 -0.547203)
(324.498 -1.48352 -0.442153)
(326.045 -2.06234 -0.326192)
(327.97 -2.70622 -0.201378)
(330.34 -3.43839 -0.0678388)
(333.244 -4.28961 0.0760307)
(336.795 -5.30156 0.233622)
(341.144 -6.53291 0.410295)
(346.49 -8.07044 0.613814)
(353.11 -10.0506 0.855091)
(361.384 -12.7031 1.14935)
(371.852 -16.4434 1.51821)
(385.07 -22.114 1.98988)
(403.35 -31.134 2.56058)
(321.004 1.30146 1.53752)
(318.309 1.96298 2.46404)
(316.434 1.89906 2.6779)
(315.322 1.50748 2.58055)
(314.785 1.00929 2.39975)
(314.723 0.467621 2.20707)
(315.092 -0.108756 2.02142)
(315.873 -0.722719 1.85193)
(317.074 -1.38303 1.70407)
(318.723 -2.10555 1.58044)
(320.877 -2.91376 1.48249)
(323.613 -3.83917 1.41108)
(327.037 -4.92456 1.36739)
(331.294 -6.2301 1.3536)
(336.58 -7.84494 1.37364)
(343.167 -9.90903 1.43404)
(351.433 -12.6572 1.54523)
(361.913 -16.5121 1.72407)
(375.174 -22.321 1.98974)
(393.519 -31.5429 2.3222)
(278.22 2.58361 -12.0894)
(279.915 3.77489 -9.05713)
(281.387 3.87667 -7.07538)
(282.595 3.57583 -5.7013)
(283.743 3.14112 -4.67057)
(284.993 2.62945 -3.86494)
(286.419 2.05 -3.22242)
(288.067 1.40629 -2.70099)
(289.996 0.695199 -2.27005)
(292.274 -0.095609 -1.90742)
(294.982 -0.987558 -1.59714)
(298.217 -2.01175 -1.32696)
(302.104 -3.21132 -1.08708)
(306.802 -4.64794 -0.869276)
(312.52 -6.41405 -0.666035)
(319.542 -8.65599 -0.46989)
(328.259 -11.6199 -0.272575)
(339.213 -15.7477 -0.063568)
(352.978 -21.9027 0.168678)
(371.904 -31.6647 0.38947)
(278.019 -0.764671 12.0607)
(279.849 -1.55575 8.91)
(281.684 -2.32064 6.79092)
(283.454 -3.00039 5.31496)
(285.182 -3.5936 4.21898)
(286.939 -4.14779 3.37034)
(288.792 -4.71229 2.69899)
(290.792 -5.32564 2.15966)
(292.995 -6.02193 1.71988)
(295.469 -6.8371 1.356)
(298.293 -7.81288 1.05001)
(301.551 -9.001 0.788188)
(305.348 -10.4682 0.559629)
(309.811 -12.3047 0.355321)
(315.098 -14.6377 0.167382)
(321.405 -17.655 -0.0119501)
(328.968 -21.643 -0.191185)
(338.058 -27.0495 -0.380707)
(348.857 -34.5916 -0.592174)
(362.272 -45.2609 -0.802847)
(322.944 -0.655834 -0.784121)
(321.8 -1.25251 -1.39186)
(321.187 -1.79034 -1.56842)
(321.126 -2.27602 -1.50309)
(321.421 -2.72853 -1.3731)
(321.979 -3.18286 -1.24659)
(322.785 -3.67576 -1.13798)
(323.858 -4.23848 -1.04971)
(325.229 -4.89951 -0.982907)
(326.945 -5.68969 -0.937657)
(329.062 -6.64578 -0.914506)
(331.657 -7.81357 -0.915297)
(334.825 -9.25318 -0.942003)
(338.686 -11.0472 -0.997398)
(343.394 -13.3139 -1.08585)
(349.14 -16.2278 -1.21435)
(356.159 -20.0564 -1.39349)
(364.733 -25.2212 -1.63926)
(375.055 -32.4036 -1.96968)
(388.052 -42.4764 -2.36499)
(345.562 -1.34866 1.00303)
(343.098 -2.14166 1.42346)
(341.185 -2.60666 1.50207)
(340.024 -2.9586 1.44253)
(339.43 -3.27687 1.31165)
(339.25 -3.60432 1.13806)
(339.428 -3.97914 0.944122)
(339.959 -4.43469 0.74467)
(340.862 -5.00021 0.546511)
(342.167 -5.70504 0.350891)
(343.923 -6.58304 0.156271)
(346.197 -7.67692 -0.0405961)
(349.077 -9.0437 -0.244728)
(352.678 -10.7623 -0.46294)
(357.147 -12.9458 -0.704278)
(362.674 -15.7621 -0.980519)
(369.496 -19.4705 -1.30694)
(377.9 -24.4815 -1.70393)
(388.08 -31.4609 -2.19556)
(400.977 -41.2227 -2.77437)
(347.548 -1.8578 -0.141879)
(346.768 -2.82355 -0.235422)
(346.113 -3.28195 -0.366117)
(345.789 -3.59125 -0.492538)
(345.769 -3.87075 -0.584092)
(346.003 -4.16371 -0.647049)
(346.486 -4.50418 -0.695381)
(347.245 -4.92397 -0.739051)
(348.322 -5.45192 -0.784959)
(349.764 -6.11677 -0.838763)
(351.633 -6.95161 -0.905447)
(354 -7.99815 -0.990024)
(356.96 -9.31187 -1.09831)
(360.631 -10.9698 -1.23743)
(365.165 -13.0827 -1.41633)
(370.756 -15.8159 -1.64655)
(377.647 -19.4245 -1.94317)
(386.132 -24.3137 -2.3261)
(396.41 -31.1418 -2.81994)
(409.459 -40.7016 -3.42514)
(347.601 -1.7922 -0.182324)
(347.048 -2.80544 -0.235798)
(346.78 -3.31666 -0.25259)
(346.879 -3.65826 -0.276209)
(347.275 -3.95723 -0.303384)
(347.911 -4.26015 -0.333079)
(348.777 -4.60087 -0.369866)
(349.893 -5.0118 -0.417527)
(351.298 -5.52334 -0.478119)
(353.041 -6.16568 -0.553401)
(355.184 -6.97271 -0.645754)
(357.806 -7.98631 -0.75859)
(361.003 -9.26168 -0.896682)
(364.899 -10.875 -1.06653)
(369.651 -12.936 -1.27683)
(375.458 -15.6078 -1.53906)
(382.57 -19.1433 -1.86828)
(391.29 -23.9436 -2.28389)
(401.823 -30.6624 -2.8099)
(415.185 -40.0854 -3.45028)
(347.573 -1.71544 -0.123322)
(347.013 -2.75328 -0.200631)
(346.824 -3.31177 -0.252218)
(347.053 -3.68291 -0.309723)
(347.597 -3.99798 -0.375314)
(348.393 -4.31236 -0.442815)
(349.43 -4.66251 -0.510245)
(350.725 -5.08044 -0.57903)
(352.313 -5.59586 -0.651667)
(354.243 -6.23844 -0.73117)
(356.577 -7.04144 -0.821264)
(359.39 -8.04606 -0.926573)
(362.783 -9.30669 -1.05283)
(366.88 -10.8986 -1.2072)
(371.84 -12.9303 -1.39866)
(377.868 -15.5637 -1.63859)
(385.218 -19.0495 -1.9414)
(394.203 -23.7863 -2.32516)
(405.031 -30.4247 -2.81189)
(418.768 -39.7494 -3.40756)
(347.559 -1.68003 -0.0856391)
(346.975 -2.71878 -0.156449)
(346.783 -3.29552 -0.206047)
(347.034 -3.67849 -0.250266)
(347.614 -3.99654 -0.296832)
(348.455 -4.30989 -0.345252)
(349.547 -4.6576 -0.394756)
(350.911 -5.07187 -0.446699)
(352.579 -5.58203 -0.503579)
(354.6 -6.21753 -0.568252)
(357.034 -7.01149 -0.643911)
(359.958 -8.00483 -0.734351)
(363.472 -9.25157 -0.844263)
(367.701 -10.8265 -0.97955)
(372.807 -12.8372 -1.14771)
(378.998 -15.4448 -1.35827)
(386.532 -18.8988 -1.62331)
(395.729 -23.5961 -1.958)
(406.801 -30.1849 -2.38066)
(420.853 -39.4498 -2.89745)
(347.553 -1.66236 -0.0578061)
(346.952 -2.6956 -0.110589)
(346.748 -3.27901 -0.149875)
(347.001 -3.66941 -0.183022)
(347.59 -3.99058 -0.217497)
(348.446 -4.30397 -0.255276)
(349.557 -4.6506 -0.295959)
(350.944 -5.06333 -0.339757)
(352.644 -5.57146 -0.387882)
(354.703 -6.20426 -0.442096)
(357.182 -6.99468 -0.504554)
(360.16 -7.98345 -0.57794)
(363.736 -9.22426 -0.665695)
(368.038 -10.7915 -0.772246)
(373.229 -12.7923 -0.903263)
(379.519 -15.3873 -1.06597)
(387.171 -18.825 -1.26948)
(396.508 -23.5017 -1.52522)
(407.748 -30.0646 -1.84694)
(422.025 -39.299 -2.24052)
(347.55 -1.65313 -0.0335827)
(346.94 -2.68174 -0.0655309)
(346.727 -3.26752 -0.0903853)
(346.977 -3.66232 -0.110962)
(347.569 -3.98575 -0.13172)
(348.429 -4.29897 -0.154529)
(349.546 -4.64409 -0.179339)
(350.941 -5.05464 -0.206117)
(352.652 -5.56 -0.235507)
(354.725 -6.18938 -0.268631)
(357.224 -6.9757 -0.306905)
(360.226 -7.95964 -0.352063)
(363.832 -9.19486 -0.406288)
(368.171 -10.7556 -0.472364)
(373.407 -12.749 -0.553824)
(379.752 -15.3352 -0.655139)
(387.471 -18.7628 -0.781935)
(396.891 -23.4276 -0.941234)
(408.232 -29.9765 -1.14142)
(422.646 -39.1962 -1.38675)
(347.549 -1.64911 -0.0110341)
(346.935 -2.67535 -0.0217083)
(346.718 -3.26182 -0.0302057)
(346.965 -3.65857 -0.0372146)
(347.558 -3.98319 -0.0441759)
(348.42 -4.29641 -0.0518385)
(349.538 -4.64081 -0.060265)
(350.937 -5.05034 -0.0694538)
(352.651 -5.55446 -0.0796201)
(354.73 -6.18237 -0.09115)
(357.236 -6.96697 -0.104525)
(360.247 -7.94894 -0.120327)
(363.866 -9.1819 -0.13928)
(368.22 -10.7401 -0.162305)
(373.476 -12.7304 -0.190578)
(379.845 -15.3132 -0.225592)
(387.595 -18.7368 -0.26923)
(397.053 -23.3969 -0.323856)
(408.44 -29.9405 -0.392285)
(422.919 -39.1552 -0.476179)
(347.549 -1.64911 0.0110252)
(346.935 -2.67535 0.0216981)
(346.718 -3.26182 0.0301878)
(346.965 -3.65857 0.0371868)
(347.558 -3.98319 0.04414)
(348.42 -4.29641 0.0517954)
(349.538 -4.64081 0.0602148)
(350.937 -5.05034 0.0693975)
(352.651 -5.55446 0.0795596)
(354.73 -6.18237 0.0910862)
(357.236 -6.96697 0.104458)
(360.247 -7.94894 0.120254)
(363.866 -9.1819 0.139199)
(368.22 -10.7401 0.162217)
(373.476 -12.7304 0.190483)
(379.845 -15.3132 0.225489)
(387.595 -18.7368 0.269119)
(397.053 -23.3969 0.323735)
(408.44 -29.9405 0.392153)
(422.919 -39.1552 0.476036)
(347.55 -1.65313 0.033574)
(346.94 -2.68174 0.0655211)
(346.727 -3.26752 0.0903678)
(346.977 -3.66231 0.110935)
(347.569 -3.98574 0.131684)
(348.429 -4.29897 0.154486)
(349.546 -4.64408 0.179289)
(350.941 -5.05464 0.20606)
(352.652 -5.55999 0.235446)
(354.725 -6.18937 0.268567)
(357.224 -6.9757 0.306837)
(360.226 -7.95964 0.351989)
(363.832 -9.19486 0.406209)
(368.171 -10.7556 0.472277)
(373.407 -12.749 0.553729)
(379.752 -15.3352 0.655035)
(387.471 -18.7628 0.781824)
(396.891 -23.4276 0.941113)
(408.232 -29.9766 1.14129)
(422.646 -39.1962 1.38661)
(347.553 -1.66236 0.0577979)
(346.952 -2.6956 0.11058)
(346.748 -3.279 0.149858)
(347.001 -3.66941 0.182995)
(347.59 -3.99057 0.217462)
(348.446 -4.30397 0.255232)
(349.557 -4.65059 0.295908)
(350.944 -5.06333 0.339701)
(352.644 -5.57146 0.387822)
(354.703 -6.20426 0.442033)