/*--------------------------------*- C++ -*----------------------------------*\
  =========                 |
  \\      /  F ield         | OpenFOAM: The Open Source CFD Toolbox
   \\    /   O peration     | Website:  https://openfoam.org
    \\  /    A nd           | Version:  10
     \\/     M anipulation  |
\*---------------------------------------------------------------------------*/
FoamFile
{
    format      ascii;
    class       volScalarField;
    location    "500";
    object      k;
}
// * * * * * * * * * * * * * * * * * * * * * * * * * * * * * * * * * * * * * //

dimensions      [0 2 -2 0 0 0 0];

internalField   nonuniform List<scalar> 
112000
(
461.939
472.476
483.46
494.78
506.254
517.81
529.444
541.171
553.014
565.004
577.182
589.602
602.327
615.439
629.031
643.213
658.111
673.831
690.908
705.291
472.2
493.769
515.063
536.102
556.794
577.105
597.049
616.653
635.95
654.977
673.783
692.431
710.998
729.582
748.302
767.315
786.837
807.168
829.56
850.315
473.513
498.185
523.329
548.535
573.52
598.111
622.218
645.801
668.855
691.398
713.468
735.12
756.43
777.49
798.42
819.368
840.546
862.244
885.822
907.203
473.783
499.295
525.933
553.171
580.597
607.912
634.908
661.44
687.417
712.79
737.546
761.703
785.306
808.428
831.166
853.647
876.05
898.596
922.576
943.261
473.804
499.436
526.394
554.166
582.329
610.576
638.679
666.47
693.827
720.672
746.963
772.693
797.886
822.592
846.889
870.885
894.728
918.586
943.685
964.792
473.799
499.422
526.42
554.31
582.691
611.277
639.854
668.256
696.354
724.056
751.307
778.079
804.377
830.236
855.716
880.909
905.949
930.977
957.202
979.049
473.795
499.405
526.394
554.29
582.699
611.341
640.011
668.549
696.835
724.782
752.337
779.479
806.213
832.575
858.629
884.469
910.231
936.059
963.177
985.867
473.794
499.395
526.373
554.261
582.666
611.312
639.997
668.569
696.911
724.942
752.612
779.903
806.824
833.413
859.737
885.894
912.023
938.276
965.9
989.112
473.794
499.391
526.362
554.243
582.641
611.281
639.961
668.531
696.875
724.914
752.601
779.92
806.884
833.533
859.939
886.202
912.471
938.904
966.766
990.26
473.793
499.389
526.357
554.234
582.629
611.265
639.941
668.507
696.849
724.887
752.576
779.901
806.875
833.541
859.971
886.27
912.585
939.083
967.032
990.634
473.793
499.389
526.357
554.234
582.629
611.265
639.941
668.507
696.849
724.887
752.576
779.9
806.875
833.541
859.971
886.27
912.585
939.083
967.032
990.634
473.794
499.391
526.362
554.243
582.641
611.281
639.961
668.531
696.875
724.914
752.601
779.92
806.884
833.533
859.938
886.202
912.471
938.904
966.766
990.26
473.794
499.395
526.373
554.261
582.666
611.312
639.997
668.569
696.911
724.942
752.612
779.903
806.824
833.413
859.737
885.893
912.023
938.276
965.9
989.112
473.795
499.405
526.394
554.29
582.699
611.341
640.011
668.549
696.835
724.782
752.337
779.478
806.213
832.575
858.629
884.469
910.231
936.059
963.177
985.867
473.799
499.422
526.42
554.31
582.691
611.277
639.854
668.256
696.354
724.056
751.306
778.078
804.377
830.236
855.715
880.909
905.949
930.977
957.202
979.048
473.804
499.436
526.394
554.166
582.329
610.576
638.679
666.47
693.827
720.672
746.963
772.693
797.886
822.592
846.889
870.885
894.728
918.586
943.685
964.791
473.783
499.295
525.933
553.171
580.597
607.912
634.908
661.44
687.417
712.79
737.546
761.703
785.306
808.428
831.166
853.647
876.05
898.595
922.576
943.261
473.513
498.185
523.329
548.535
573.52
598.111
622.218
645.801
668.855
691.398
713.468
735.12
756.43
777.49
798.419
819.368
840.546
862.244
885.822
907.203
472.2
493.769
515.063
536.102
556.794
577.105
597.049
616.653
635.95
654.977
673.783
692.431
710.998
729.582
748.302
767.315
786.837
807.169
829.56
850.315
461.939
472.476
483.46
494.78
506.254
517.81
529.443
541.17
553.013
565.004
577.182
589.601
602.327
615.438
629.03
643.213
658.11
673.83
690.906
705.29
472.079
493.339
514.153
534.547
554.435
573.785
592.608
610.93
628.797
646.296
663.466
680.363
697.06
713.65
730.243
746.972
763.987
781.432
799.703
817.341
709.231
770.067
813.736
847.987
876.37
900.373
920.8
938.212
953.03
965.547
976.067
984.883
992.311
998.73
1004.65
1010.81
1018.44
1029.62
1050.21
1083.46
721.866
801.061
859.55
904.527
940.459
969.761
993.849
1013.68
1029.94
1043.17
1053.79
1062.17
1068.67
1073.72
1077.85
1081.87
1087.12
1095.91
1115.19
1148.9
727.067
814.866
883.27
937.894
982.422
1019.02
1049.06
1073.54
1093.25
1108.82
1120.77
1129.56
1135.61
1139.37
1141.36
1142.33
1143.49
1146.87
1159.28
1183.74
728.334
818.103
890.104
949.655
999.843
1042.36
1078.24
1108.24
1132.98
1152.97
1168.67
1180.47
1188.77
1193.96
1196.52
1197.08
1196.67
1196.96
1204.31
1220.21
728.614
818.497
891.05
951.792
1003.76
1048.54
1087.08
1120.04
1147.91
1171.1
1189.96
1204.79
1215.9
1223.59
1228.25
1230.39
1230.89
1231.14
1237.13
1249.12
728.741
818.582
891.145
952.108
1004.56
1050.09
1089.64
1123.86
1153.2
1178.05
1198.71
1215.44
1228.49
1238.13
1244.67
1248.58
1250.63
1252.06
1258.71
1270
728.816
818.628
891.129
952.072
1004.58
1050.27
1090.07
1124.64
1154.46
1179.91
1201.28
1218.83
1232.81
1243.47
1251.1
1256.15
1259.35
1261.89
1269.57
1281.42
728.858
818.66
891.12
952.026
1004.53
1050.24
1090.1
1124.76
1154.73
1180.38
1202.01
1219.9
1234.27
1245.38
1253.53
1259.17
1263.03
1266.27
1274.72
1287.21
728.878
818.677
891.119
952.005
1004.49
1050.2
1090.07
1124.75
1154.75
1180.45
1202.15
1220.12
1234.61
1245.87
1254.21
1260.07
1264.18
1267.73
1276.54
1289.39
728.878
818.677
891.119
952.005
1004.49
1050.2
1090.07
1124.75
1154.75
1180.45
1202.15
1220.12
1234.61
1245.87
1254.21
1260.07
1264.18
1267.73
1276.54
1289.39
728.858
818.66
891.12
952.026
1004.53
1050.24
1090.1
1124.76
1154.73
1180.38
1202.01
1219.9
1234.27
1245.38
1253.53
1259.17
1263.03
1266.27
1274.72
1287.21
728.816
818.628
891.129
952.072
1004.58
1050.27
1090.07
1124.64
1154.46
1179.91
1201.28
1218.83
1232.81
1243.47
1251.1
1256.15
1259.35
1261.89
1269.57
1281.42
728.741
818.582
891.145
952.108
1004.56
1050.09
1089.64
1123.86
1153.2
1178.05
1198.71
1215.44
1228.49
1238.13
1244.67
1248.58
1250.64
1252.06
1258.71
1270
728.614
818.497
891.05
951.792
1003.76
1048.54
1087.08
1120.04
1147.91
1171.1
1189.96
1204.79
1215.9
1223.59
1228.25
1230.39
1230.89
1231.14
1237.13
1249.12
728.334
818.103
890.104
949.655
999.843
1042.36
1078.24
1108.24
1132.98
1152.97
1168.67
1180.47
1188.77
1193.96
1196.51
1197.08
1196.67
1196.96
1204.31
1220.21
727.067
814.866
883.27
937.894
982.422
1019.02
1049.06
1073.54
1093.25
1108.82
1120.77
1129.56
1135.61
1139.37
1141.36
1142.33
1143.49
1146.87
1159.28
1183.74
721.866
801.061
859.55
904.527
940.459
969.761
993.848
1013.68
1029.94
1043.17
1053.79
1062.17
1068.67
1073.72
1077.85
1081.87
1087.12
1095.91
1115.19
1148.91
709.231
770.067
813.736
847.987
876.37
900.373
920.799
938.212
953.029
965.547
976.067
984.883
992.311
998.73
1004.65
1010.81
1018.44
1029.62
1050.21
1083.46
472.079
493.339
514.152
534.547
554.435
573.785
592.608
610.931
628.798
646.296
663.466
680.363
697.06
713.65
730.244
746.973
763.987
781.432
799.703
817.341
473.495
498.007
522.829
547.542
571.857
595.6
618.682
641.065
662.744
683.752
704.219
724.18
743.693
762.837
781.713
800.452
819.207
838.143
857.579
876.861
724.071
804.857
864.885
911.402
948.925
979.915
1005.83
1027.65
1046.13
1061.8
1075.05
1086.34
1096.13
1104.95
1113.51
1122.75
1134.14
1149.92
1174.4
1209.08
737.853
772.048
809.601
846.836
882.204
914.955
944.713
971.363
994.973
1015.72
1033.86
1049.69
1063.62
1076.17
1088.11
1100.58
1115.43
1135.61
1166.94
1212.36
747.792
787.952
827.657
864.703
898.552
929.162
956.567
980.845
1002.12
1020.56
1036.35
1049.74
1061.04
1070.68
1079.33
1088.03
1098.55
1113.78
1139.88
1180.33
750.862
795.889
841.138
883.639
922.324
956.895
987.305
1013.64
1036.07
1054.82
1070.14
1082.3
1091.63
1098.53
1103.59
1107.73
1112.47
1120.36
1137.24
1166.24
751.422
797.411
844.566
889.849
931.868
970.004
1003.97
1033.66
1059.12
1080.47
1097.87
1111.53
1121.73
1128.78
1133.18
1135.68
1137.58
1141.03
1151.41
1171.09
751.547
797.581
845.048
891.086
934.306
974.02
1009.86
1041.65
1069.34
1092.94
1112.56
1128.32
1140.39
1149.03
1154.61
1157.78
1159.62
1162.02
1169.97
1185.13
751.604
797.591
845.027
891.164
934.66
974.841
1011.34
1043.96
1072.65
1097.4
1118.27
1135.36
1148.8
1158.79
1165.65
1169.95
1172.67
1175.53
1183.32
1197.23
751.637
797.595
844.976
891.084
934.612
974.897
1011.57
1044.47
1073.51
1098.72
1120.14
1137.87
1152.02
1162.78
1170.45
1175.57
1179.1
1182.64
1190.94
1204.91
751.652
797.599
844.951
891.034
934.554
974.853
1011.57
1044.53
1073.67
1099.01
1120.62
1138.56
1152.98
1164.05
1172.07
1177.56
1181.48
1185.41
1194.07
1208.28
751.652
797.599
844.951
891.034
934.554
974.853
1011.57
1044.53
1073.67
1099.01
1120.62
1138.56
1152.98
1164.05
1172.07
1177.56
1181.48
1185.41
1194.07
1208.28
751.637
797.595
844.976
891.084
934.612
974.897
1011.57
1044.47
1073.51
1098.72
1120.14
1137.87
1152.02
1162.78
1170.45
1175.57
1179.1
1182.64
1190.94
1204.91
751.604
797.591
845.027
891.164
934.66
974.841
1011.34
1043.96
1072.65
1097.4
1118.27
1135.36
1148.8
1158.79
1165.65
1169.95
1172.67
1175.53
1183.32
1197.23
751.547
797.581
845.048
891.086
934.306
974.02
1009.86
1041.65
1069.34
1092.94
1112.56
1128.32
1140.39
1149.03
1154.61
1157.78
1159.62
1162.02
1169.97
1185.13
751.422
797.411
844.566
889.849
931.868
970.004
1003.97
1033.66
1059.12
1080.47
1097.87
1111.53
1121.73
1128.78
1133.18
1135.68
1137.58
1141.03
1151.41
1171.09
750.862
795.889
841.138
883.639
922.324
956.895
987.305
1013.64
1036.07
1054.82
1070.14
1082.3
1091.63
1098.53
1103.59
1107.73
1112.47
1120.36
1137.24
1166.24
747.792
787.952
827.657
864.702
898.552
929.162
956.567
980.845
1002.12
1020.56
1036.35
1049.74
1061.04
1070.68
1079.33
1088.03
1098.55
1113.78
1139.88
1180.33
737.853
772.048
809.6
846.836
882.204
914.955
944.713
971.363
994.973
1015.72
1033.86
1049.69
1063.61
1076.17
1088.11
1100.58
1115.43
1135.6
1166.94
1212.36
724.071
804.857
864.885
911.402
948.925
979.915
1005.83
1027.65
1046.12
1061.8
1075.05
1086.34
1096.12
1104.95
1113.51
1122.75
1134.14
1149.92
1174.4
1209.08
473.495
498.007
522.829
547.542
571.857
595.6
618.682
641.065
662.744
683.752
704.219
724.18
743.693
762.837
781.713
800.452
819.207
838.143
857.579
876.861
473.777
499.156
525.505
552.279
579.051
605.519
631.47
656.76
681.296
705.03
727.947
750.065
771.431
792.118
812.224
832.018
851.651
871.284
891.168
911.094
729.349
818.91
889.086
945.585
992.196
1031.17
1063.98
1091.69
1115.17
1135.15
1152.24
1167.04
1180.12
1192.13
1203.8
1216
1230.13
1248.19
1273.23
1306.48
749.316
790.582
831.454
869.83
905.26
937.763
967.42
994.344
1018.7
1040.7
1060.6
1078.7
1095.42
1111.31
1127.18
1144.23
1164.23
1189.89
1225.43
1273.32
794.464
807.673
825.456
845.492
866.512
887.856
909.033
929.633
949.337
967.932
985.309
1001.49
1016.64
1031.11
1045.56
1061.07
1079.43
1103.47
1137.9
1185.99
802.724
820.923
840.096
859.226
877.921
896.074
913.566
930.218
945.84
960.265
973.385
985.168
995.698
1005.23
1014.27
1023.76
1035.27
1051.42
1076.81
1114.92
804.863
826.341
849.102
871.635
893.244
913.661
932.701
950.179
965.92
979.785
991.68
1001.57
1009.52
1015.72
1020.58
1024.87
1029.93
1038.02
1053.39
1079.27
805.248
827.353
851.281
875.513
899.191
921.864
943.191
962.856
980.579
996.131
1009.34
1020.09
1028.38
1034.31
1038.17
1040.57
1042.64
1046.29
1055.37
1072.64
805.336
827.477
851.585
876.254
900.643
924.276
946.771
967.764
986.921
1003.95
1018.62
1030.74
1040.24
1047.13
1051.62
1054.19
1055.8
1058.1
1064.69
1077.83
805.374
827.49
851.578
876.296
900.845
924.758
947.658
969.183
988.99
1006.77
1022.28
1035.3
1045.71
1053.49
1058.8
1062.03
1064.06
1066.41
1072.47
1084.23
805.39
827.494
851.555
876.26
900.828
924.8
947.806
969.486
989.505
1007.56
1023.39
1036.78
1047.6
1055.83
1061.57
1065.23
1067.62
1070.2
1076.31
1087.79
805.39
827.494
851.555
876.26
900.828
924.8
947.806
969.486
989.505
1007.56
1023.39
1036.78
1047.6
1055.83
1061.57
1065.23
1067.62
1070.2
1076.31
1087.79
805.374
827.49
851.578
876.297
900.845
924.758
947.658
969.183
988.99
1006.77
1022.28
1035.3
1045.71
1053.49
1058.8
1062.03
1064.06
1066.41
1072.47
1084.24
805.336
827.477
851.585
876.254
900.643
924.276
946.771
967.764
986.921
1003.95
1018.62
1030.74
1040.24
1047.13
1051.62
1054.19
1055.8
1058.1
1064.69
1077.83
805.248
827.353
851.281
875.513
899.191
921.864
943.191
962.856
980.579
996.131
1009.34
1020.09
1028.38
1034.31
1038.17
1040.57
1042.64
1046.29
1055.37
1072.64
804.863
826.341
849.102
871.635
893.244
913.661
932.701
950.179
965.92
979.785
991.68
1001.57
1009.52
1015.72
1020.58
1024.87
1029.93
1038.02
1053.39
1079.27
802.724
820.923
840.096
859.226
877.921
896.074
913.566
930.218
945.839
960.265
973.385
985.168
995.697
1005.23
1014.27
1023.75
1035.27
1051.42
1076.8
1114.92
794.464
807.672
825.456
845.491
866.512
887.855
909.032
929.632
949.337
967.931
985.308
1001.49
1016.64
1031.11
1045.56
1061.07
1079.43
1103.47
1137.9
1185.98
749.316
790.582
831.454
869.83
905.26
937.763
967.419
994.343
1018.7
1040.7
1060.6
1078.7
1095.42
1111.3
1127.18
1144.23
1164.23
1189.89
1225.43
1273.32
729.349
818.91
889.085
945.585
992.195
1031.17
1063.98
1091.69
1115.17
1135.15
1152.24
1167.04
1180.12
1192.13
1203.8
1216
1230.13
1248.19
1273.22
1306.48
473.777
499.156
525.505
552.279
579.051
605.519
631.47
656.76
681.297
705.03
727.947
750.065
771.432
792.118
812.224
832.019
851.652
871.284
891.169
911.095
473.8
499.315
526.011
553.349
580.887
608.307
635.371
661.903
687.776
712.905
737.243
760.776
783.522
805.524
826.855
847.746
868.306
888.682
909.08
929.513
730.572
822.157
896.041
957.617
1010.07
1055.19
1094.12
1127.72
1156.72
1181.79
1203.52
1222.5
1239.36
1254.77
1269.52
1284.46
1300.9
1320.56
1345.67
1377.34
752.655
799.228
846.254
890.864
932.099
969.756
1003.88
1034.63
1062.29
1087.19
1109.7
1130.27
1149.44
1167.83
1186.3
1206.05
1228.75
1256.7
1293.01
1339.59
804.241
823.623
844.121
864.778
885.258
905.514
925.483
945.044
964.067
982.459
1000.19
1017.33
1034.08
1050.84
1068.31
1087.56
1110.25
1138.87
1176.9
1226.91
846.728
849.562
855.376
863.299
872.658
883.055
894.202
905.83
917.685
929.558
941.298
952.853
964.296
975.877
988.119
1001.95
1018.88
1041.29
1072.69
1115.98
853.647
861.295
869.313
877.576
885.957
894.401
902.843
911.18
919.277
926.995
934.224
940.907
947.079
952.927
958.865
965.669
974.66
987.952
1008.86
1040.28
855.22
865.285
875.933
886.707
897.284
907.488
917.186
926.237
934.488
941.791
948.022
953.1
957.022
959.91
962.082
964.172
967.303
973.306
985.197
1005.66
855.494
866.021
877.494
889.444
901.449
913.217
924.512
935.098
944.743
953.226
960.355
965.983
970.034
972.547
973.741
974.117
974.619
976.83
983.491
996.986
855.551
866.113
877.723
889.978
902.468
914.889
926.976
938.465
949.083
958.567
966.676
973.208
978.029
981.111
982.591
982.871
982.765
983.681
988.155
998.32
855.569
866.121
877.733
890.034
902.635
915.238
927.582
939.4
950.414
960.348
968.945
975.981
981.296
984.828
986.674
987.187
987.116
987.778
991.607
1000.6
855.569
866.121
877.733
890.034
902.635
915.238
927.582
939.4
950.414
960.348
968.945
975.981
981.296
984.828
986.674
987.187
987.116
987.778
991.607
1000.6
855.551
866.113
877.723
889.978
902.468
914.889
926.976
938.465
949.083
958.567
966.676
973.208
978.029
981.111
982.591
982.871
982.765
983.681
988.155
998.32
855.494
866.021
877.494
889.444
901.449
913.217
924.512
935.098
944.743
953.226
960.355
965.983
970.034
972.547
973.741
974.117
974.618
976.83
983.49
996.986
855.22
865.285
875.933
886.707
897.284
907.488
917.186
926.237
934.488
941.791
948.022
953.1
957.022
959.909
962.081
964.172
967.302
973.305
985.196
1005.66
853.647
861.295
869.313
877.576
885.957
894.4
902.843
911.18
919.277
926.995
934.224
940.906
947.079
952.926
958.864
965.667
974.658
987.949
1008.85
1040.28
846.728
849.562
855.376
863.299
872.658
883.055
894.202
905.829
917.685
929.557
941.297
952.852
964.294
975.875
988.116
1001.94
1018.88
1041.29
1072.68
1115.97
804.241
823.623
844.121
864.778
885.258
905.513
925.482
945.043
964.066
982.458
1000.19
1017.33
1034.08
1050.84
1068.31
1087.56
1110.25
1138.86
1176.9
1226.9
752.655
799.228
846.254
890.863
932.099
969.756
1003.88
1034.63
1062.29
1087.18
1109.7
1130.27
1149.43
1167.83
1186.3
1206.05
1228.74
1256.69
1293.01
1339.58
730.572
822.157
896.041
957.617
1010.07
1055.19
1094.12
1127.72
1156.72
1181.79
1203.52
1222.5
1239.36
1254.77
1269.52
1284.46
1300.9
1320.56
1345.67
1377.34
473.8
499.315
526.011
553.349
580.887
608.307
635.371
661.903
687.777
712.906
737.243
760.777
783.522
805.524
826.855
847.747
868.306
888.682
909.081
929.513
473.794
499.311
526.065
553.55
581.342
609.137
636.707
663.869
690.481
716.435
741.656
766.101
789.757
812.637
834.784
856.265
877.205
897.884
918.463
939.054
730.787
822.462
896.889
959.653
1013.89
1061.29
1102.91
1139.54
1171.8
1200.27
1225.48
1247.94
1268.22
1286.96
1304.9
1322.97
1342.28
1364.16
1390.35
1421.95
753.212
800.797
849.836
897.395
942.205
983.775
1021.94
1056.73
1088.32
1117.01
1143.15
1167.19
1189.69
1211.3
1232.89
1255.57
1280.82
1310.61
1347.35
1392.67
806.622
829.642
854.227
878.942
903.186
926.802
949.723
971.885
993.248
1013.82
1033.67
1052.97
1072.02
1091.27
1111.41
1133.5
1159.05
1190.19
1229.61
1279.39
855.024
863.669
872.757
882.241
892.07
902.267
912.848
923.789
935.036
946.54
958.287
970.324
982.81
996.069
1010.68
1027.55
1048.07
1074.29
1108.94
1154.38
894.003
892.573
893.045
894.954
897.855
901.468
905.633
910.235
915.181
920.399
925.852
931.567
937.657
944.379
952.204
961.922
974.784
992.669
1018.2
1053.81
899.807
902.675
905.504
908.361
911.202
913.988
916.703
919.319
921.8
924.099
926.188
928.076
929.844
931.692
934.009
937.47
943.174
952.803
968.784
993.497
901.029
905.801
910.703
915.549
920.152
924.389
928.185
931.481
934.215
936.322
937.752
938.481
938.549
938.097
937.433
937.127
938.133
941.945
950.796
966.922
901.233
906.375
911.92
917.66
923.334
928.734
933.708
938.126
941.865
944.804
946.839
947.892
947.944
947.072
945.508
943.725
942.56
943.359
948.191
959.147
901.268
906.448
912.114
918.089
924.113
929.962
935.462
940.46
944.799
948.328
950.904
952.413
952.798
952.089
950.47
948.357
946.516
946.207
949.406
958.112
901.268
906.448
912.114
918.089
924.113
929.962
935.462
940.46
944.799
948.328
950.904
952.413
952.798
952.089
950.47
948.357
946.516
946.207
949.406
958.112
901.233
906.375
911.92
917.66
923.334
928.734
933.708
938.126
941.865
944.804
946.839
947.892
947.944
947.072
945.507
943.724
942.56
943.358
948.19
959.146
901.029
905.801
910.703
915.549
920.152
924.389
928.185
931.481
934.215
936.322
937.752
938.481
938.549
938.096
937.433
937.127
938.132
941.944
950.794
966.92
899.807
902.675
905.504
908.361
911.201
913.988
916.703
919.319
921.799
924.099
926.188
928.076
929.843
931.691
934.008
937.469
943.172
952.8
968.781
993.492
894.003
892.573
893.045
894.954
897.855
901.468
905.632
910.234
915.18
920.398
925.852
931.566
937.656
944.377
952.201
961.919
974.781
992.665
1018.19
1053.8
855.024
863.669
872.757
882.241
892.07
902.266
912.848
923.789
935.035
946.539
958.285
970.322
982.808
996.066
1010.68
1027.55
1048.07
1074.29
1108.93
1154.37
806.622
829.642
854.227
878.942
903.186
926.802
949.722
971.884
993.246
1013.82
1033.67
1052.97
1072.02
1091.27
1111.41
1133.49
1159.05
1190.19
1229.6
1279.38
753.212
800.797
849.835
897.394
942.205
983.775
1021.94
1056.73
1088.32
1117.01
1143.15
1167.19
1189.68
1211.29
1232.89
1255.57
1280.82
1310.61
1347.34
1392.66
730.787
822.461
896.889
959.653
1013.89
1061.29
1102.91
1139.54
1171.8
1200.27
1225.48
1247.94
1268.22
1286.96
1304.9
1322.96
1342.28
1364.15
1390.35
1421.94
473.794
499.311
526.065
553.55
581.342
609.137
636.707
663.869
690.481
716.435
741.656
766.102
789.757
812.637
834.784
856.266
877.206
897.884
918.464
939.055
473.79
499.299
526.061
553.58
581.438
609.337
637.053
664.409
691.263
717.507
743.063
767.881
791.939
815.24
837.811
859.702
880.99
901.876
922.566
943.209
730.868
822.49
896.948
959.983
1014.78
1063.04
1105.81
1143.85
1177.79
1208.14
1235.41
1260.07
1282.65
1303.74
1324.03
1344.35
1365.76
1389.4
1416.67
1448.7
753.311
800.938
850.315
898.686
944.786
988.065
1028.29
1065.43
1099.59
1131
1159.97
1186.89
1212.27
1236.73
1261.08
1286.33
1313.79
1345.11
1382.24
1426.75
807.012
830.703
856.563
883.161
909.75
936.015
961.764
986.846
1011.16
1034.68
1057.47
1079.68
1101.62
1123.74
1146.72
1171.52
1199.46
1232.33
1272.33
1321.32
856.825
868.202
880.358
892.931
905.704
918.624
931.689
944.9
958.251
971.76
985.482
999.544
1014.17
1029.73
1046.79
1066.23
1089.3
1117.76
1153.8
1199.49
901.074
904.827
908.583
912.483
916.549
920.811
925.319
930.121
935.253
940.758
946.7
953.191
960.425
968.723
978.603
990.84
1006.58
1027.46
1055.61
1093.15
936.461
932.947
930.786
929.656
929.228
929.273
929.659
930.312
931.187
932.269
933.573
935.172
937.217
939.976
943.893
949.664
958.333
971.408
990.905
1018.93
941.418
941.683
941.762
941.759
941.667
941.455
941.103
940.596
939.92
939.067
938.046
936.907
935.764
934.84
934.518
935.414
938.478
945.105
957.202
976.834
942.405
944.233
946.012
947.634
948.979
949.949
950.479
950.529
950.064
949.059
947.505
945.428
942.914
940.146
937.461
935.417
934.892
937.196
944.16
957.815
942.559
944.697
946.989
949.291
951.414
953.19
954.495
955.234
955.33
954.722
953.367
951.263
948.469
945.138
941.575
938.302
936.158
936.407
940.836
951.46
942.559
944.697
946.989
949.291
951.414
953.19
954.495
955.234
955.33
954.722
953.367
951.263
948.468
945.138
941.574
938.302
936.158
936.407
940.836
951.46
942.405
944.233
946.012
947.634
948.979
949.949
950.479
950.529
950.064
949.059
947.505
945.428
942.913
940.146
937.461
935.416
934.891
937.195
944.159
957.813
941.418
941.683
941.762
941.759
941.667
941.455
941.103
940.595
939.92
939.067
938.046
936.906
935.764
934.84
934.517
935.413
938.477
945.103
957.199
976.83
936.461
932.947
930.786
929.656
929.228
929.273
929.659
930.311
931.187
932.268
933.572
935.171
937.216
939.974
943.891
949.662
958.33
971.404
990.9
1018.93
901.074
904.827
908.583
912.482
916.548
920.811
925.319
930.12
935.252
940.757
946.699
953.19
960.424
968.721
978.6
990.836
1006.58
1027.46
1055.6
1093.14
856.825
868.201
880.358
892.931
905.704
918.623
931.689
944.899
958.25
971.758
985.481
999.542
1014.17
1029.73
1046.79
1066.22
1089.3
1117.75
1153.79
1199.48
807.012
830.703
856.562
883.161
909.75
936.014
961.763
986.845
1011.16
1034.68
1057.46
1079.68
1101.62
1123.74
1146.72
1171.52
1199.45
1232.33
1272.32
1321.31
753.311
800.938
850.315
898.685
944.786
988.065
1028.29
1065.43
1099.59
1131
1159.96
1186.89
1212.27
1236.73
1261.07
1286.32
1313.78
1345.1
1382.23
1426.74
730.867
822.49
896.948
959.983
1014.78
1063.04
1105.81
1143.85
1177.79
1208.14
1235.41
1260.07
1282.65
1303.74
1324.02
1344.35
1365.75
1389.4
1416.67
1448.7
473.79
499.299
526.061
553.58
581.438
609.337
637.053
664.409
691.263
717.507
743.063
767.881
791.94
815.241
837.811
859.703
880.992
901.877
922.567
943.21
473.787
499.293
526.059
553.595
581.486
609.435
637.224
664.679
691.66
718.059
743.797
768.821
793.101
816.632
839.431
861.536
883.007
903.926
924.522
945.006
730.91
822.508
896.941
960.027
1015
1063.56
1106.78
1145.43
1180.13
1211.43
1239.81
1265.76
1289.79
1312.45
1334.4
1356.42
1379.43
1404.56
1432.96
1465.74
753.349
800.928
850.298
898.813
945.265
989.115
1030.13
1068.29
1103.68
1136.52
1167.11
1195.81
1223.09
1249.53
1275.86
1303
1332.11
1364.62
1402.14
1446.24
807.081
830.802
856.863
883.949
911.339
938.698
965.807
992.488
1018.61
1044.11
1069.03
1093.48
1117.74
1142.22
1167.52
1194.52
1224.36
1258.54
1298.89
1347.23
857.111
868.988
882.062
895.972
910.414
925.239
940.369
955.749
971.337
987.129
1003.17
1019.59
1036.6
1054.57
1074.05
1095.82
1120.97
1151
1187.77
1233.23
902.509
908.449
914.664
921.057
927.53
934.058
940.679
947.454
954.456
961.769
969.509
977.838
986.995
997.331
1009.36
1023.81
1041.73
1064.55
1094.07
1132.3
942.584
943.645
944.539
945.435
946.382
947.405
948.537
949.823
951.314
953.071
955.182
957.781
961.072
965.369
971.142
979.078
990.153
1005.72
1027.52
1057.56
974.895
970.201
966.59
963.795
961.547
959.643
957.957
956.416
954.986
953.664
952.486
951.54
950.992
951.116
952.34
955.305
960.94
970.545
985.836
1008.81
979.22
977.872
976.309
974.617
972.79
970.794
968.599
966.188
963.556
960.714
957.701
954.599
951.563
948.851
946.872
946.248
947.886
953.071
963.513
981.244
980.027
979.968
979.75
979.266
978.423
977.143
975.376
973.103
970.322
967.053
963.346
959.292
955.05
950.881
947.196
944.615
944.047
946.779
954.534
969.377
980.027
979.968
979.75
979.266
978.423
977.143
975.376
973.103
970.321
967.053
963.346
959.292
955.05
950.881
947.196
944.615
944.047
946.778
954.534
969.376
979.22
977.872
976.309
974.617
972.79
970.794
968.599
966.188
963.556
960.714
957.701
954.599
951.563
948.851
946.871
946.246
947.884
953.069
963.511
981.241
974.895
970.201
966.59
963.795
961.547
959.643
957.957
956.416
954.985
953.663
952.485
951.539
950.991
951.115
952.338
955.303
960.937
970.542
985.832
1008.81
942.584
943.645
944.539
945.435
946.382
947.404
948.536
949.823
951.313
953.07
955.181
957.779
961.071
965.367
971.139
979.075
990.149
1005.71
1027.51
1057.55
902.509
908.449
914.664
921.057
927.529
934.058
940.679
947.454
954.455
961.768
969.508
977.836
986.993
997.328
1009.35
1023.8
1041.72
1064.54
1094.07
1132.29
857.111
868.988
882.062
895.972
910.414
925.239
940.369
955.748
971.336
987.128
1003.17
1019.59
1036.6
1054.57
1074.04
1095.81
1120.96
1150.99
1187.76
1233.21
807.081
830.802
856.862
883.949
911.339
938.697
965.806
992.487
1018.61
1044.11
1069.02
1093.48
1117.74
1142.21
1167.52
1194.51
1224.35
1258.53
1298.88
1347.21
753.348
800.928
850.297
898.813
945.264
989.114
1030.13
1068.29
1103.68
1136.52
1167.11
1195.81
1223.09
1249.53
1275.86
1303
1332.1
1364.61
1402.13
1446.23
730.91
822.508
896.94
960.027
1015
1063.56
1106.78
1145.42
1180.13
1211.42
1239.81
1265.76
1289.78
1312.45
1334.4
1356.41
1379.43
1404.56
1432.96
1465.73
473.787
499.293
526.059
553.595
581.486
609.435
637.224
664.679
691.66
718.059
743.797
768.821
793.101
816.633
839.432
861.537
883.008
903.927
924.523
945.007
473.785
499.291
526.064
553.616
581.533
609.52
637.359
664.875
691.931
718.417
744.253
769.383
793.775
817.418
840.323
862.519
884.055
904.994
925.419
945.63
730.93
822.53
896.971
960.11
1015.2
1063.98
1107.5
1146.56
1181.78
1213.72
1242.88
1269.74
1294.8
1318.62
1341.81
1365.11
1389.36
1415.57
1444.88
1478.35
753.367
800.925
850.272
898.818
945.395
989.48
1030.85
1069.49
1105.51
1139.13
1170.63
1200.39
1228.85
1256.56
1284.2
1312.61
1342.81
1376.05
1413.77
1457.57
807.102
830.793
856.847
884.022
911.636
939.371
967.02
994.408
1021.41
1047.96
1074.07
1099.88
1125.59
1151.6
1178.45
1206.9
1237.96
1272.93
1313.4
1361.18
857.154
869.06
882.287
896.547
911.554
927.152
943.25
959.776
976.673
993.919
1011.54
1029.64
1048.42
1068.19
1089.46
1112.93
1139.57
1170.67
1207.86
1253.09
902.728
909.073
916.013
923.445
931.206
939.202
947.413
955.862
964.593
973.678
983.223
993.388
1004.41
1016.63
1030.54
1046.84
1066.47
1090.7
1121.16
1159.88
943.768
946.65
949.591
952.562
955.516
958.436
961.346
964.299
967.371
970.655
974.275
978.403
983.28
989.25
996.797
1006.6
1019.59
1037.03
1060.54
1092.2
980.287
979.659
978.823
977.923
977.003
976.075
975.153
974.266
973.457
972.793
972.371
972.338
972.918
974.434
977.361
982.366
990.377
1002.65
1020.85
1047.05
1010.01
1004.54
999.94
995.961
992.357
988.953
985.64
982.368
979.127
975.949
972.907
970.136
967.849
966.369
966.171
967.934
972.602
981.462
996.201
1018.96
1013.76
1011.05
1007.96
1004.55
1000.88
996.955
992.8
988.449
983.953
979.383
974.844
970.486
966.538
963.335
961.365
961.32
964.165
971.211
984.175
1005.23
1013.76
1011.05
1007.96
1004.55
1000.88
996.955
992.799
988.448
983.953
979.383
974.843
970.486
966.538
963.335
961.365
961.319
964.165
971.21
984.174
1005.23
1010.01
1004.54
999.94
995.961
992.357
988.952
985.64
982.368
979.127
975.948
972.906
970.135
967.848
966.368
966.17
967.932
972.6
981.46
996.198
1018.95
980.287
979.659
978.823
977.923
977.003
976.075
975.153
974.265
973.456
972.792
972.37
972.337
972.916
974.433
977.359
982.363
990.373
1002.65
1020.84
1047.04
943.768
946.65
949.591
952.561
955.516
958.436
961.345
964.298
967.37
970.654
974.274
978.402
983.278
989.248
996.795
1006.6
1019.59
1037.02
1060.54
1092.19
902.728
909.073
916.013
923.445
931.206
939.201
947.413
955.861
964.592
973.677
983.222
993.386
1004.41
1016.63
1030.54
1046.83
1066.46
1090.69
1121.15
1159.87
857.154
869.06
882.287
896.547
911.554
927.152
943.249
959.775
976.672
993.918
1011.54
1029.64
1048.41
1068.19
1089.46
1112.92
1139.56
1170.66
1207.85
1253.08
807.102
830.793
856.847
884.022
911.635
939.371
967.019
994.407
1021.41
1047.96
1074.07
1099.87
1125.59
1151.6
1178.45
1206.89
1237.95
1272.92
1313.39
1361.16
753.367
800.925
850.271
898.818
945.394
989.479
1030.85
1069.49
1105.51
1139.13
1170.63
1200.39
1228.85
1256.56
1284.2
1312.61
1342.8
1376.04
1413.76
1457.56
730.93
822.53
896.971
960.109
1015.2
1063.98
1107.5
1146.55
1181.78
1213.72
1242.88
1269.74
1294.8
1318.62
1341.81
1365.1
1389.35
1415.56
1444.87
1478.34
473.785
499.291
526.063
553.616
581.533
609.52
637.359
664.875
691.931
718.417
744.253
769.383
793.775
817.419
840.324
862.52
884.056
904.996
925.421
945.631
473.783
499.291
526.072
553.641
581.586
609.61
637.494
665.067
692.187
718.747
744.662
769.874
794.346
818.063
841.027
863.257
884.789
905.672
925.968
945.77
730.93
822.547
897.027
960.244
1015.47
1064.45
1108.24
1147.65
1183.32
1215.8
1245.59
1273.19
1299.1
1323.85
1348.05
1372.39
1397.64
1424.71
1454.64
1488.7
753.371
800.929
850.286
898.876
945.551
989.801
1031.41
1070.37
1106.79
1140.91
1173.01
1203.46
1232.71
1261.27
1289.79
1319.03
1349.94
1383.6
1421.34
1464.81
807.102
830.778
856.825
884.031
911.736
939.636
967.531
995.256
1022.69
1049.78
1076.54
1103.08
1129.63
1156.52
1184.26
1213.54
1245.28
1280.62
1321.01
1368.34
857.156
869.045
882.281
896.615
911.785
927.644
944.108
961.109
978.594
996.537
1014.96
1033.96
1053.71
1074.51
1096.82
1121.3
1148.82
1180.57
1218.06
1263.35
902.751
909.127
916.2
923.905
932.086
940.64
949.534
958.776
968.4
978.463
989.064
1000.35
1012.56
1026.02
1041.21
1058.79
1079.68
1105.09