/*--------------------------------*- C++ -*----------------------------------*\
  =========                 |
  \\      /  F ield         | OpenFOAM: The Open Source CFD Toolbox
   \\    /   O peration     | Website:  https://openfoam.org
    \\  /    A nd           | Version:  10
     \\/     M anipulation  |
\*---------------------------------------------------------------------------*/
FoamFile
{
    format      ascii;
    class       volScalarField;
    location    "500";
    object      p;
}
// * * * * * * * * * * * * * * * * * * * * * * * * * * * * * * * * * * * * * //

dimensions      [1 -1 -2 0 0 0 0];

internalField   nonuniform List<scalar> 
112000
(
197770
197035
196474
196153
195924
195694
195432
195127
194767
194337
193820
193195
192434
191503
190351
188909
187070
184659
181360
176679
196214
196096
195926
195785
195649
195481
195265
194993
194658
194248
193746
193133
192382
191459
190315
188879
187043
184634
181331
176653
196399
196345
196222
196063
195883
195676
195428
195132
194775
194347
193830
193203
192441
191508
190353
188906
187058
184634
181310
176609
196391
196259
196086
195911
195731
195530
195293
195008
194663
194244
193736
193116
192359
191428
190273
188823
186968
184529
181180
176444
196373
196236
196075
195921
195759
195569
195338
195054
194707
194284
193770
193144
192379
191438
190272
188807
186932
184468
181082
176300
196353
196215
196053
195898
195733
195538
195302
195015
194665
194240
193723
193094
192325
191379
190205
188730
186840
184354
180937
176113
196335
196198
196037
195884
195721
195529
195295
195009
194660
194235
193717
193085
192312
191360
190178
188691
186786
184280
180833
175971
196321
196185
196024
195872
195710
195518
195283
194996
194646
194218
193698
193062
192285
191328
190139
188643
186726
184203
180735
175843
196312
196176
196016
195865
195703
195511
195276
194989
194638
194210
193688
193051
192271
191311
190117
188615
186690
184156
180673
175761
196307
196171
196012
195861
195699
195507
195272
194985
194633
194205
193682
193044
192263
191300
190104
188599
186669
184129
180639
175716
196307
196171
196012
195861
195699
195507
195272
194985
194633
194205
193682
193044
192263
191300
190104
188599
186669
184129
180639
175716
196312
196176
196016
195865
195703
195511
195276
194989
194638
194210
193688
193051
192271
191311
190117
188615
186690
184156
180673
175761
196321
196185
196024
195872
195710
195518
195283
194996
194646
194218
193697
193062
192285
191328
190139
188642
186725
184203
180734
175842
196335
196198
196037
195884
195721
195529
195295
195009
194660
194235
193717
193085
192312
191360
190178
188691
186786
184279
180833
175971
196353
196215
196053
195898
195733
195538
195302
195015
194665
194240
193723
193094
192325
191379
190205
188730
186840
184354
180937
176112
196373
196236
196075
195921
195759
195569
195337
195054
194707
194284
193770
193144
192378
191438
190271
188806
186932
184468
181082
176300
196391
196259
196086
195911
195731
195530
195293
195008
194663
194244
193735
193116
192359
191428
190273
188823
186968
184529
181179
176443
196399
196345
196222
196063
195883
195676
195428
195132
194775
194347
193829
193203
192441
191507
190353
188906
187058
184634
181309
176608
196214
196096
195926
195785
195649
195480
195264
194993
194658
194248
193746
193133
192382
191459
190315
188878
187043
184633
181331
176652
197770
197035
196474
196152
195924
195694
195432
195127
194767
194337
193820
193195
192434
191503
190351
188909
187069
184658
181359
176679
196251
196133
195963
195822
195687
195521
195308
195041
194713
194310
193819
193221
192490
191595
190490
189114
187377
185149
182229
178402
194855
195125
195326
195398
195376
195282
195121
194892
194591
194209
193733
193147
192424
191534
190432
189056
187315
185079
182143
178312
195029
195355
195585
195643
195586
195457
195266
195013
194691
194292
193801
193200
192465
191563
190448
189058
187301
185044
182081
178230
194990
195272
195457
195499
195444
195322
195142
194900
194588
194197
193712
193116
192383
191481
190364
188967
187200
184926
181937
178056
194960
195251
195446
195501
195459
195347
195170
194929
194615
194220
193731
193129
192388
191477
190348
188937
187150
184852
181828
177909
194935
195229
195425
195479
195434
195318
195139
194894
194578
194181
193689
193083
192339
191421
190283
188860
187058
184736
181682
177724
194915
195211
195410
195465
195421
195306
195129
194885
194570
194172
193678
193069
192320
191396
190250
188815
186997
184655
181572
177580
194900
195197
195398
195454
195410
195295
195117
194872
194555
194156
193659
193047
192294
191364
190211
188767
186937
184578
181472
177452
194890
195187
195389
195447
195403
195288
195110
194865
194547
194146
193649
193035
192279
191346
190188
188738
186899
184529
181409
177369
194885
195183
195385
195443
195400
195285
195106
194861
194542
194141
193643
193028
192270
191335
190175
188721
186878
184502
181374
177325
194885
195183
195385
195443
195400
195285
195106
194861
194542
194141
193643
193028
192270
191335
190175
188721
186878
184502
181374
177325
194890
195187
195389
195447
195403
195288
195110
194865
194547
194146
193649
193035
192279
191346
190188
188738
186899
184529
181408
177369
194900
195197
195398
195454
195410
195295
195117
194872
194555
194156
193659
193047
192294
191364
190211
188767
186936
184578
181472
177452
194915
195211
195409
195465
195421
195306
195129
194885
194570
194172
193678
193069
192320
191396
190250
188815
186997
184655
181572
177579
194935
195229
195425
195479
195434
195318
195139
194894
194578
194181
193689
193083
192339
191421
190283
188860
187057
184736
181681
177724
194960
195250
195446
195501
195459
195347
195170
194929
194615
194220
193731
193128
192388
191477
190348
188936
187150
184851
181828
177908
194990
195272
195457
195499
195444
195322
195142
194900
194588
194197
193712
193116
192383
191481
190364
188967
187200
184926
181936
178056
195029
195355
195585
195643
195586
195457
195266
195013
194691
194292
193801
193200
192465
191563
190448
189057
187301
185044
182081
178230
194855
195125
195326
195397
195376
195282
195121
194892
194590
194209
193733
193146
192424
191534
190432
189055
187315
185078
182142
178311
196251
196133
195963
195822
195687
195521
195308
195041
194712
194310
193819
193221
192490
191595
190490
189113
187377
185148
182229
178401
196504
196449
196327
196172
195999
195801
195568
195290
194957
194559
194082
193508
192814
191973
190946
189684
188122
186172
183717
180662
195100
195427
195658
195719
195667
195545
195365
195126
194823
194446
193985
193422
192736
191899
190873
189610
188042
186080
183605
180537
195815
195885
196003
195999
195888
195714
195492
195222
194893
194497
194018
193440
192740
191890
190851
189572
187985
186000
183494
180400
195737
195788
195855
195839
195737
195576
195367
195107
194788
194399
193926
193351
192652
191801
190757
189470
187871
185867
183333
180208
195665
195773
195860
195851
195756
195599
195390
195128
194804
194409
193930
193347
192640
191778
190722
189419
187801
185772
183204
180044
195627
195754
195847
195832
195731
195571
195359
195094
194768
194370
193887
193301
192588
191719
190653
189339
187703
185652
183054
179859
195601
195735
195834
195820
195719
195558
195347
195082
194756
194357
193871
193281
192564
191687
190613
189285
187634
185561
182936
179709
195583
195719
195823
195811
195709
195547
195335
195069
194741
194340
193852
193258
192536
191654
190572
189234
187570
185481
182833
179580
195571
195709
195815
195805
195702
195540
195327
195061
194732
194330
193840
193245
192519
191634
190546
189203
187530
185429
182766
179495
195566
195704
195811
195801
195699
195536
195323
195057
194727
194324
193834
193237
192510
191622
190532
189185
187508
185401
182731
179450
195566
195704
195811
195801
195699
195536
195323
195057
194727
194324
193834
193237
192510
191622
190532
189185
187508
185401
182731
179450
195571
195709
195815
195805
195702
195540
195327
195061
194732
194330
193840
193244
192519
191634
190546
189203
187529
185429
182766
179495
195583
195719
195823
195811
195709
195547
195335
195069
194741
194340
193852
193258
192536
191654
190571
189234
187570
185481
182833
179580
195601
195735
195834
195820
195719
195558
195347
195082
194756
194357
193871
193281
192564
191687
190612
189285
187634
185561
182936
179709
195627
195754
195847
195832
195731
195571
195359
195094
194768
194370
193887
193301
192588
191719
190653
189338
187703
185652
183054
179859
195665
195773
195860
195851
195756
195599
195390
195128
194804
194409
193929
193347
192640
191778
190722
189419
187800
185772
183204
180044
195737
195788
195855
195839
195737
195576
195367
195107
194788
194399
193925
193351
192652
191801
190757
189470
187871
185867
183332
180208
195815
195885
196003
195999
195888
195714
195492
195222
194893
194497
194018
193440
192740
191890
190850
189571
187985
186000
183494
180399
195100
195427
195658
195718
195667
195545
195365
195126
194823
194446
193985
193422
192736
191898
190873
189610
188042
186080
183605
180536
196504
196449
196327
196172
195998
195801
195568
195290
194957
194559
194082
193508
192814
191972
190946
189684
188122
186172
183717
180662
196592
196460
196292
196127
195963
195785
195579
195335
195041
194688
194262
193749
193131
192383
191476
190376
189036
187405
185420
183049
195161
195444
195634
195686
195647
195547
195396
195190
194924
194591
194180
193678
193066
192322
191417
190315
188971
187330
185330
182945
195842
195894
195965
195956
195865
195717
195526
195289
194999
194645
194217
193698
193072
192314
191396
190278
188915
187251
185220
182807
196152
195960
195885
195834
195742
195603
195421
195192
194909
194562
194138
193622
192996
192235
191310
190183
188806
187122
185063
182619
196038
195929
195874
195832
195752
195620
195440
195209
194922
194569
194138
193614
192978
192206
191268
190125
188729
187020
184930
182451
195963
195914
195876
195825
195734
195597
195413
195179
194888
194532
194097
193569
192927
192148
191201
190045
188631
186901
184782
182271
195924
195897
195870
195817
195723
195584
195400
195166
194874
194516
194078
193545
192898
192112
191154
189986
188556
186805
184660
182120
195900
195880
195861
195810
195714
195573
195387
195152
194859
194498
194057
193521
192869
192076
191111
189932
188490
186722
184556
181993
195885
195868
195854
195805
195708
195566
195379
195143
194849
194487
194044
193505
192850
192054
191083
189898
188447
186668
184487
181906
195878
195862
195850
195803
195705
195562
195375
195138
194844
194481
194037
193497
192841
192042
191068
189879
188424
186639
184450
181861
195878
195862
195850
195803
195705
195562
195375
195138
194844
194481
194037
193497
192841
192042
191068
189879
188424
186639
184450
181861
195885
195868
195854
195805
195708
195566
195379
195143
194849
194487
194044
193505
192850
192054
191083
189898
188446
186667
184487
181906
195900
195880
195861
195810
195714
195573
195387
195152
194859
194498
194057
193521
192869
192076
191111
189932
188490
186722
184556
181992
195924
195897
195870
195817
195723
195584
195400
195166
194874
194516
194078
193545
192898
192111
191154
189985
188556
186805
184660
182120
195963
195914
195876
195825
195734
195597
195413
195179
194888
194532
194097
193569
192927
192148
191200
190044
188631
186901
184782
182271
196038
195929
195874
195832
195752
195620
195440
195209
194922
194569
194137
193614
192978
192206
191268
190125
188729
187020
184929
182450
196152
195960
195885
195834
195742
195603
195420
195192
194909
194562
194138
193622
192996
192235
191310
190183
188806
187122
185063
182619
195842
195894
195965
195956
195865
195717
195526
195289
194999
194645
194217
193698
193072
192314
191395
190278
188915
187250
185220
182807
195161
195444
195634
195686
195647
195547
195395
195190
194924
194591
194180
193677
193065
192321
191416
190315
188971
187330
185329
182944
196592
196460
196292
196127
195963
195785
195579
195335
195041
194688
194262
193749
193130
192382
191476
190375
189036
187404
185420
183048
196694
196560
196407
196272
196138
195988
195808
195592
195331
195016
194639
194187
193645
192997
192220
191291
190181
188862
187305
185506
195252
195545
195751
195825
195812
195738
195612
195434
195202
194909
194548
194108
193575
192933
192159
191231
190119
188792
187224
185412
195896
196006
196101
196108
196037
195911
195743
195532
195273
194958
194579
194123
193576
192921
192134
191192
190063
188716
187122
185283
196170
196062
196010
195978
195910
195796
195638
195436
195185
194877
194502
194049
193502
192844
192053
191102
189960
188596
186977
185107
196363
196157
196049
196000
195934
195821
195661
195455
195197
194882
194500
194038
193482
192813
192009
191043
189883
188496
186848
184946
196248
196127
196038
195982
195910
195794
195632
195423
195163
194845
194459
193994
193432
192756
191943
190964
189789
188381
186707
184776
196177
196111
196044
195984
195903
195784
195620
195410
195148
194828
194438
193968
193400
192716
191893
190902
189712
188285
186587
184629
196141
196094
196041
195980
195895
195772
195607
195395
195131
194808
194416
193941
193369
192679
191848
190847
189644
188202
186485
184506
196121
196081
196036
195977
195890
195765
195598
195385
195121
194796
194402
193925
193349
192655
191818
190811
189599
188146
186415
184421
196112
196074
196032
195976
195888
195761
195594
195381
195115
194790
194394
193916
193338
192642
191803
190791
189575
188116
186378
184377
196112
196074
196032
195976
195888
195761
195594
195380
195115
194790
194394
193916
193338
192642
191803
190791
189575
188116
186378
184377
196121
196081
196036
195977
195890
195765
195598
195385
195121
194796
194402
193925
193349
192655
191818
190811
189599
188146
186415
184421
196141
196094
196041
195980
195895
195772
195607
195395
195131
194808
194416
193941
193369
192679
191848
190847
189644
188202
186485
184506
196177
196111
196044
195984
195903
195784
195620
195410
195148
194828
194438
193968
193400
192716
191893
190902
189711
188285
186587
184629
196248
196127
196038
195982
195910
195794
195632
195423
195163
194845
194459
193993
193432
192756
191942
190964
189788
188381
186707
184776
196363
196157
196049
196000
195934
195821
195661
195454
195197
194882
194500
194038
193482
192813
192009
191043
189883
188496
186847
184945
196170
196061
196010
195977
195910
195796
195638
195436
195185
194877
194502
194049
193502
192844
192053
191101
189960
188596
186976
185107
195896
196006
196101
196108
196037
195911
195743
195532
195273
194958
194579
194123
193576
192920
192134
191191
190063
188716
187122
185282
195252
195545
195751
195825
195811
195738
195612
195434
195202
194909
194548
194108
193575
192932
192159
191231
190118
188792
187223
185411
196694
196560
196407
196272
196138
195988
195808
195592
195330
195016
194639
194187
193645
192997
192220
191291
190181
188861
187304
185505
196813
196681
196533
196407
196285
196150
195992
195805
195582
195316
194999
194622
194174
193642
193012
192268
191393
190374
189204
187890
195367
195666
195879
195962
195960
195904
195801
195655
195461
195218
194918
194553
194113
193587
192960
192216
191340
190316
189137
187811
196002
196133
196241
196252
196190
196081
195937
195757
195537
195272
194954
194574
194122
193583
192943
192186
191295
190253
189052
187700
196243
196196
196168
196136
196074
195975
195841
195670
195459
195201
194887
194510
194058
193517
192874
192110
191208
190151
188927
187549
196402
196281
196198
196153
196095
196001
195866
195692
195475
195210
194890
194505
194044
193493
192838
192061
191142
190064
188816
187407
196549
196358
196230
196157
196084
195982
195842
195664
195444
195176
194853
194464
193999
193442
192779
191990
191057
189962
188691
187256
196442
196328
196224
196149
196072
195968
195828
195649
195428
195158
194832
194439
193967
193404
192731
191932
190985
189873
188581
187123
196377
196313
196231
196153
196069
195959
195817
195636
195412
195139
194809
194412
193936
193366
192686
191878
190920
189794
188485
187009
196347
196300
196231
196154
196064
195952
195807
195626
195401
195127
194795
194395
193915
193341
192656
191841
190875
189739
188418
186928
196334
196292
196229
196153
196062
195948
195803
195620
195395
195120
194787
194386
193904
193328
192640
191821
190851
189710
188383
186886
196334
196292
196229
196153
196062
195948
195803
195620
195395
195120
194787
194386
193904
193328
192640
191821
190851
189710
188383
186886
196347
196300
196231
196154
196064
195952
195807
195626
195401
195127
194795
194395
193915
193341
192656
191841
190875
189739
188418
186928
196377
196313
196231
196153
196068
195959
195817
195636
195412
195139
194809
194412
193936
193366
192686
191878
190920
189794
188485
187008
196442
196328
196224
196149
196072
195968
195828
195649
195428
195158
194832
194439
193967
193403
192731
191931
190985
189873
188581
187123
196549
196358
196230
196157
196084
195982
195842
195664
195444
195176
194853
194464
193999
193442
192778
191990
191057
189962
188691
187256
196402
196281
196198
196153
196095
196001
195866
195691
195475
195210
194890
194505
194044
193493
192838
192060
191142
190064
188815
187406
196243
196196
196168
196136
196074
195975
195841
195670
195459
195200
194887
194510
194058
193517
192873
192109
191207
190150
188927
187548
196002
196133
196241
196252
196190
196081
195937
195757
195537
195272
194954
194574
194121
193583
192943
192186
191294
190253
189051
187699
195367
195666
195879
195962
195960
195904
195801
195655
195461
195218
194917
194553
194113
193587
192960
192216
191340
190316
189136
187811
196813
196681
196533
196407
196285
196150
195992
195805
195582
195316
194999
194622
194174
193642
193012
192267
191393
190374
189203
187890
196952
196822
196682
196569
196466
196356
196229
196079
195902
195691
195440
195143
194793
194381
193897
193334
192683
191940
191108
190201
195503
195806
196028
196125
196141
196108
196036
195927
195779
195590
195356
195072
194731
194325
193846
193284
192633
191887
191048
190131
196135
196274
196395
196419
196373
196288
196173
196030
195856
195646
195394
195095
194741
194323
193832
193259
192594
191833
190976
190035
196367
196342
196332
196310
196261
196184
196080
195947
195781
195577
195331
195036
194683
194264
193771
193191
192518
191745
190870
189907
196497
196433
196377
196339
196292
196217
196111
195973
195802
195592
195339
195036
194675
194247
193743
193152
192465
191674
190778
189789
196613
196500
196402
196338
196279
196198
196089
195948
195774
195562
195307
195001
194636
194204
193693
193094
192395
191589
190674
189663
196737
196565
196433
196349
196277
196191
196079
195937
195761
195547
195288
194978
194609
194170
193652
193043
192333
191513
190581
189550
196641
196537
196429
196345
196269
196179
196066
195922
195744
195528
195266
194953
194579
194136
193611
192994
192275
191444
190498
189451
196586
196526
196438
196352
196268
196174
196058
195913
195734
195516
195252
194936
194559
194112
193582
192960
192233
191394
190438
189380
196566
196520
196440
196353
196267
196170
196053
195908
195728
195509
195244
194927
194548
194099
193567
192941
192211
191367
190406
189343
196566
196520
196440
196353
196267
196170
196053
195908
195728
195509
195244
194927
194548
194099
193567
192941
192211
191367
190406
189343
196586
196526
196438
196352
196268
196174
196058
195913
195734
195516
195252
194936
194559
194112
193582
192960
192233
191394
190438
189380
196641
196537
196429
196345
196269
196179
196066
195922
195744
195528
195266
194953
194579
194136
193611
192994
192275
191443
190498
189451
196737
196565
196433
196349
196277
196191
196079
195937
195761
195547
195288
194978
194609
194170
193652
193043
192333
191513
190581
189550
196613
196500
196402
196338
196279
196198
196089
195948
195774
195562
195307
195001
194636
194204
193693
193093
192395
191589
190674
189663
196497
196433
196377
196339
196292
196217
196111
195973
195802
195592
195339
195036
194675
194247
193743
193152
192465
191674
190778
189788
196367
196342
196332
196310
196261
196184
196080
195947
195781
195577
195331
195035
194683
194264
193770
193191
192518
191744
190870
189907
196135
196274
196395
196419
196373
196288
196173
196030
195856
195646
195394
195095
194741
194323
193832
193258
192594
191832
190975
190035
195503
195806
196028
196125
196141
196108
196036
195927
195779
195590
195356
195072
194731
194325
193846
193284
192633
191887
191048
190130
196952
196822
196682
196569
196466
196356
196229
196079
195901
195690
195440
195143
194793
194380
193897
193334
192683
191940
191107
190200
197106
196979
196848
196747
196663
196576
196479
196367
196235
196080
195898
195684
195434
195143
194806
194420
193981
193491
192957
192394
195656
195963
196194
196304
196339
196330
196288
196216
196114
195982
195817
195616
195376
195092
194759
194375
193936
193444
192905
192334
196287
196431
196563
196602
196573
196511
196427
196321
196193
196040
195858
195642
195389
195094
194751
194356
193905
193400
192846
192256
196515
196500
196504
196497
196465
196410
196336
196241
196122
195976
195799
195588
195338
195043
194698
194299
193842
193327
192759
192151
196637
196594
196559
196533
196499
196446
196370
196271
196147
195995
195812
195594
195337
195034
194681
194272
193803
193274
192688
192058
196728
196666
196597
196543
196495
196434
196354
196252
196125
195972
195787
195567
195307
195000
194642
194226
193749
193208
192609
191960
196826
196723
196621
196549
196491
196427
196346
196244
196116
195961
195774
195551
195287
194975
194611
194188
193702
193151
192538
191873
196939
196781
196650
196561
196492
196422
196337
196232
196102
195945
195755
195530
195262
194947
194578
194149
193656
193096
192472
191796
196858
196759
196649
196559
196486
196414
196328
196222
196092
195933
195742
195515
195245
194927
194554
194121
193622
193056
192425
191740
196817
196755
196658
196566
196488
196412
196325
196218
196087
195927
195735
195506
195235
194915
194541
194105
193604
193034
192399
191710
196817
196755
196658
196566
196488
196412
196325
196218
196087
195927
195735
195506
195235
194915
194541
194105
193604
193034
192399
191710
196858
196759
196649
196559
196486
196414
196328
196222
196092
195933
195742
195515
195245
194927
194554
194121
193622
193056
192425
191740
196939
196781
196650
196561
196492
196422
196337
196232
196102
195945
195755
195530
195262
194947
194578
194149
193656
193096
192472
191796
196826
196723
196621
196549
196491
196427
196346
196243
196116
195961
195774
195551
195287
194975
194611
194188
193702
193151
192537
191873
196728
196666
196597
196543
196495
196434
196354
196252
196125
195972
195787
195567
195307
195000
194642
194226
193749
193208
192608
191960
196637
196594
196559
196533
196499
196446
196370
196271
196147
195995
195812
195594
195337
195034
194681
194271
193803
193273
192688
192058
196515
196500
196504
196497
196465
196410
196336
196241
196122
195976
195799
195588
195338
195043
194698
194299
193842
193327
192759
192150
196287
196431
196563
196602
196573
196511
196426
196321
196193
196040
195857
195642
195389
195094
194751
194355
193905
193400
192845
192255
195656
195963
196194
196304
196339
196330
196288
196216
196114
195982
195817
195616
195376
195091
194759
194375
193936
193443
192905
192334
197106
196979
196847
196747
196663
196576
196479
196367
196235
196080
195898
195684
195434
195143
194806
194419
193981
193490
192956
192394
197272
197149
197025
196939
196873
196812
196746
196673
196590
196493
196382
196252
196103
195932
195737
195518
195276
195014
194741
194471
195821
196132
196372
196495
196549
196565
196555
196522
196469
196395
196301
196185
196045
195881
195692
195476
195234
194971
194695
194419
196452
196601
196742
196795
196786
196748
196695
196629
196549
196455
196343
196213
196061
195887
195687
195462
195210
194936
194648
194356
196679
196670
196686
196694
196679
196649
196606
196551
196481
196394
196289
196163
196015
195842
195642
195414
195158
194877
194579
194273
196799
196765
196744
196734
196717
196688
196643
196584
196509
196417
196306
196175
196020
195841
195634
195398
195133
194841
194529
194206
196884
196841
196790
196750
196717
196679
196631
196569
196492
196399
196287
196155
195999
195817
195607
195366
195095
194795
194473
194137
196960
196902
196827
196766
196721
196679
196629
196566
196489
196394
196281
196146
195987
195802
195588
195343
195065
194758
194426
194079
197051
196954
196850
196773
196720
196673
196622
196558
196479
196383
196268
196131
195971
195783
195566
195317
195035
194722
194383
194027
197164
197012
196877
196784
196722
196671
196617
196552
196472
196375
196259
196121
195959
195769
195550
195298
195013
194696
194352
193990
197106
196997
196873
196781
196719
196667
196613
196547
196467
196370
196253
196114
195951
195761
195540
195287
195001
194682
194335
193969
197106
196997
196873
196781
196719
196667
196613
196547
196467
196370
196253
196114
195951
195761
195540
195287
195001
194681
194335
193969
197164
197012
196877
196784
196722
196671
196617
196552
196472
196375
196259
196121
195959
195769
195550
195298
195013
194696
194352
193989
197051
196954
196850
196773
196720
196673
196622
196558
196479
196383
196268
196131
195971
195783
195566
195317
195035
194722
194383
194027
196960
196902
196827
196766
196721
196679
196629
196566
196489
196394
196281
196146
195987
195802
195588
195342
195065
194758
194426
194079
196883
196841
196790
196750
196717
196679
196631
196569
196492
196399
196287
196154
195999
195817
195606
195366
195095
194795
194473
194137
196799
196765
196744
196734
196717
196688
196643
196584
196509
196417
196306
196174
196020
195841
195634
195398
195132
194841
194528
194206
196679
196670
196686
196694
196679
196649
196606
196551
196480
196394
196288
196163
196015
195842
195642
195414
195158
194877
194578
194272
196452
196601
196742
196795
196786
196747
196695
196629
196549
196455
196343
196213
196061
195887
195687
195461
195210
194936
194647
194356
195821
196132
196371
196495
196549
196565
196555
196522
196469
196395
196301
196184
196045
195881
195691
195475
195234
194971
194695
194419
197272
197149
197025
196938
196873
196811
196746
196673
196590
196493
196381
196252
196103
195931
195737
195518
195275
195014
194741
194471
197447
197326
197211
197137
197091
197055
197021
196988
196952
196914
196872
196826
196775
196720
196661
196600
196539
196484
196441
196423
195995
196308
196557
196694
196768
196808
196830
196837
196832
196817
196793
196760
196719
196672
196618
196561
196501
196446
196401
196379
196627
196778
196929
196996
197005
196992
196971
196945
196914
196878
196837
196790
196738
196681
196618
196552
196485
196420
196365
196330
196855
196848
196874
196896
196901
196895
196884
196869
196847
196820
196786
196744
196696
196641
196580
196513
196444
196375
196313
196269
196974
196945
196935
196939
196941
196936
196924
196905
196879
196847
196807
196761
196708
196648
196581
196508
196432
196355
196284
196228
197058
197022
196985
196959
196943
196930
196914
196893
196867
196834
196794
196748
196695
196634
196565
196490
196411
196329
196252
196187
197130
197088
197028
196980
196951
196933
196916
196895
196868
196835
196794
196747
196692
196630
196559
196482
196398
196313
196230
196158
197205
197145
197061
196995
196956
196934
196915
196892
196864
196830
196789
196741
196685
196622
196550
196471
196385
196297
196210
196132
197304
197196
197078
197000
196957
196932
196912
196890
196861
196827
196785
196737
196681
196616
196544
196464
196377
196286
196197
196115
197443
197252
197094
197004
196958
196932
196910
196887
196859
196824
196783
196734
196678
196613
196540
196460
196372
196281
196190
196106
197443
197252
197094
197004
196958
196932
196910
196887
196859
196824
196783
196734
196678
196613
196540
196459
196372
196281
196190
196106
197304
197196
197078
197000
196957
196932
196912
196890
196861
196827
196785
196737
196681
196616
196544
196464
196377
196286
196197
196115
197205
197145
197061
196995
196956
196934
196915
196892
196864
196830
196789
196741
196685
196621
196550
196470
196385
196296
196210
196132
197130
197088
197028
196980
196951
196933
196916
196895
196868
196835
196794
196747
196692
196630
196559
196482
196398
196312
196230
196157
197058
197022
196985
196959
196943
196930
196914
196893
196867
196834
196794
196748
196695
196634
196565
196490
196410
196329
196252
196187
196974
196945
196935
196939
196941
196936
196924
196905
196879
196847
196807
196761
196708
196648
196581
196508
196432
196355
196284
196228
196854
196848
196874
196896
196901
196895
196884
196869
196847
196820
196785
196744
196696
196641
196580
196513
196443
196374
196313
196269
196627
196778
196929
196995
197005
196992
196971
196945
196914
196878
196837
196790
196738
196681
196618
196552
196484
196419
196364
196330
195995
196308
196557
196694
196767
196808
196830
196837
196832
196817
196793
196760
196719
196672
196618
196560
196501
196445
196400
196378
197447
197326
197210
197137
197091
197055
197021
196987
196952
196914
196872
196826
196775
196720
196661
196600
196539
196483
196440
196422
197626
197508
197400
197339
197312
197300
197298
197304
197316
197335
197362
197397
197441
197497
197566
197652
197758
197889
198050
198250
196173
196489
196745
196896
196988
197054
197108
197154
197197
197239
197283
197331
197386
197450
197526
197616
197724
197855
198015
198213
196806
196961
197118
197198
197226
197238
197249
197262
197279
197301
197329
197364
197408
197462
197530
197612
197714
197838
197991
198180
197036
197032
197065
197099
197123
197143
197164
197188
197215
197246
197281
197322
197371
197429
197499
197582
197684
197806
197956
198139
197157
197130
197127
197144
197166
197186
197206
197227
197250
197276
197307
197344
197388
197443
197509
197588
197685
197803
197947
198123
197243
197210
197179
197166
197170
197182
197199
197219
197241
197268
197299
197337
197383
197438
197504
197584
197680
197797
197938
198110
197318
197278
197225
197190
197180
197188
197204
197224
197247
197274
197306
197344
197389
197444
197510
197589
197685
197800
197938
198106
197396
197338
197261
197208
197189
197193
197207
197226
197249
197275
197307
197345
197391
197446
197512
197592
197687
197802
197940
198105
197499
197392
197281
197216
197193
197195
197209
197228
197251
197278
197310
197348
197394
197450
197516
197596
197692
197807
197944
198107
197641
197452
197301
197223
197197
197197
197210
197229
197252
197279