/*--------------------------------*- C++ -*----------------------------------*\
  =========                 |
  \\      /  F ield         | OpenFOAM: The Open Source CFD Toolbox
   \\    /   O peration     | Website:  https://openfoam.org
    \\  /    A nd           | Version:  10
     \\/     M anipulation  |
\*---------------------------------------------------------------------------*/
FoamFile
{
    format      ascii;
    class       surfaceScalarField;
    location    "500";
    object      phi;
}
// * * * * * * * * * * * * * * * * * * * * * * * * * * * * * * * * * * * * * //

dimensions      [1 0 -1 0 0 0 0];

internalField   nonuniform List<scalar> 
324400
(
0.0010025
-3.57159e-06
-4.1615e-06
0.00100302
3.42098e-07
-8.61499e-07
0.00100312
8.51867e-07
-9.53431e-07
0.00100312
1.21335e-06
-1.20995e-06
0.00100314
1.52967e-06
-1.54715e-06
0.00100346
1.73109e-06
-2.05865e-06
0.00100439
1.82929e-06
-2.75826e-06
0.00100616
1.86498e-06
-3.63344e-06
0.00100898
1.8668e-06
-4.68851e-06
0.00101309
1.84921e-06
-5.95274e-06
0.00101874
1.81982e-06
-7.47487e-06
0.00102628
1.78405e-06
-9.32316e-06
0.00103613
1.74706e-06
-1.1593e-05
0.00104884
1.71473e-06
-1.44225e-05
0.00106517
1.69471e-06
-1.80234e-05
0.00108621
1.69808e-06
-2.27407e-05
0.00111365
1.74244e-06
-2.91844e-05
0.00115033
1.8578e-06
-3.85334e-05
0.00120154
2.12517e-06
-5.33345e-05
2.37959e-06
-7.9092e-05
0.00127825
0.000996197
-2.12179e-06
-1.07092e-05
0.00100166
6.27692e-07
-5.75126e-06
0.00100567
1.63424e-06
-4.78591e-06
0.00100955
1.93917e-06
-4.60992e-06
0.0010136
2.16422e-06
-4.68138e-06
0.00101797
2.34471e-06
-4.97994e-06
0.00102283
2.46615e-06
-5.504e-06
0.00102839
2.54749e-06
-6.23736e-06
0.00103482
2.61169e-06
-7.17914e-06
0.00104235
2.67242e-06
-8.34985e-06
0.00105123
2.73762e-06
-9.79002e-06
0.00106176
2.81459e-06
-1.15613e-05
0.00107435
2.91211e-06
-1.37525e-05
0.00108951
3.04169e-06
-1.64936e-05
0.00110798
3.219e-06
-1.99849e-05
0.00113076
3.46614e-06
-2.45533e-05
0.00115947
3.81511e-06
-3.07775e-05
0.00119679
4.31406e-06
-3.97765e-05
0.00124789
5.04889e-06
-5.40253e-05
6.01606e-06
-7.87327e-05
0.00132299
0.0009965
2.15076e-08
-1.07741e-05
0.0010033
7.09262e-07
-6.88604e-06
0.00100958
1.29741e-06
-5.93979e-06
0.00101561
1.55172e-06
-5.64277e-06
0.00102167
1.69974e-06
-5.5935e-06
0.00102793
1.83966e-06
-5.75009e-06
0.00103454
1.97477e-06
-6.11958e-06
0.00104168
2.10508e-06
-6.70247e-06
0.00104956
2.24031e-06
-7.50538e-06
0.00105839
2.39126e-06
-8.55026e-06
0.00106844
2.56731e-06
-9.87629e-06
0.00108002
2.77843e-06
-1.15421e-05
0.00109353
3.03734e-06
-1.3633e-05
0.00110949
3.36112e-06
-1.62752e-05
0.0011286
3.77293e-06
-1.96633e-05
0.00115187
4.30444e-06
-2.41163e-05
0.00118089
4.9998e-06
-3.02004e-05
0.0012183
5.92193e-06
-3.90144e-05
0.00126919
7.17023e-06
-5.30152e-05
8.79815e-06
-7.73559e-05
0.00134377
0.000998238
2.84464e-07
-1.06714e-05
0.00100548
6.88346e-07
-7.22456e-06
0.0010122
1.17532e-06
-6.58986e-06
0.00101868
1.57483e-06
-6.50551e-06
0.00102516
1.88861e-06
-6.66424e-06
0.00103184
2.16484e-06
-7.01059e-06
0.00103892
2.42162e-06
-7.52977e-06
0.00104658
2.6649e-06
-8.21839e-06
0.00105501
2.9043e-06
-9.08646e-06
0.00106441
3.15282e-06
-1.01599e-05
0.00107503
3.42438e-06
-1.14815e-05
0.00108719
3.73404e-06
-1.3113e-05
0.00110127
4.09964e-06
-1.5142e-05
0.00111778
4.54361e-06
-1.76957e-05
0.00113743
5.09478e-06
-2.09681e-05
0.00116122
5.79085e-06
-2.52758e-05
0.00119072
6.68165e-06
-3.11807e-05
0.00122859
7.83298e-06
-3.97729e-05
0.00127992
9.33247e-06
-5.35007e-05
1.1225e-05
-7.75096e-05
0.00135501
0.000998177
3.28606e-07
-1.04826e-05
0.0010052
6.90345e-07
-7.02378e-06
0.00101172
1.06018e-06
-6.4004e-06
0.00101815
1.38415e-06
-6.24628e-06
0.0010247
1.64864e-06
-6.30523e-06
0.00103154
1.87751e-06
-6.55429e-06
0.00103885
2.09205e-06
-6.98142e-06
0.0010468
2.30457e-06
-7.58267e-06
0.00105554
2.52573e-06
-8.36947e-06
0.0010653
2.7677e-06
-9.36871e-06
0.0010763
3.04396e-06
-1.06225e-05
0.00108886
3.3696e-06
-1.21909e-05
0.00110336
3.76255e-06
-1.41592e-05
0.00112031
4.2452e-06
-1.66515e-05
0.00114042
4.84615e-06
-1.98585e-05
0.0011647
5.60224e-06
-2.40931e-05
0.00119473
6.56096e-06
-2.9913e-05
0.00123319
7.7829e-06
-3.84035e-05
0.00128518
9.3441e-06
-5.20073e-05
1.13003e-05
-7.58672e-05
0.00136098
0.000998071
2.87482e-07
-1.03939e-05
0.00100509
5.91778e-07
-6.92406e-06
0.00101163
8.74902e-07
-6.35239e-06
0.00101813
1.13021e-06
-6.2434e-06
0.00102476
1.35987e-06
-6.33933e-06
0.00103169
1.57575e-06
-6.63144e-06
0.0010391
1.78931e-06
-7.10765e-06
0.00104716
2.00843e-06
-7.75763e-06
0.00105603
2.24031e-06
-8.5878e-06
0.00106593
2.49375e-06
-9.6219e-06
0.00107709
2.7796e-06
-1.08997e-05
0.00108983
3.11091e-06
-1.24794e-05
0.00110454
3.50377e-06
-1.44444e-05
0.00112172
3.97836e-06
-1.69173e-05
0.0011421
4.56031e-06
-2.00873e-05
0.00116668
5.28207e-06
-2.42651e-05
0.00119707
6.18427e-06
-3.00061e-05
0.00123593
7.31632e-06
-3.83917e-05
0.0012884
8.73338e-06
-5.186e-05
1.04792e-05
-7.55623e-05
0.00136478
0.000997961
2.22812e-07
-1.035e-05
0.00100496
4.58648e-07
-6.86158e-06
0.00101146
6.72532e-07
-6.30233e-06
0.00101793
8.64962e-07
-6.2016e-06
0.00102453
1.04261e-06
-6.28735e-06
0.00103145
1.21342e-06
-6.55697e-06
0.00103886
1.38388e-06
-7.00455e-06
0.00104694
1.55937e-06
-7.62168e-06
0.00105585
1.74587e-06
-8.4156e-06
0.0010658
1.95093e-06
-9.41105e-06
0.00107705
2.18381e-06
-1.06487e-05
0.00108989
2.45562e-06
-1.21872e-05
0.00110472
2.7798e-06
-1.411e-05
0.00112207
3.17295e-06
-1.65392e-05
0.00114264
3.65574e-06
-1.96629e-05
0.00116746
4.2538e-06
-2.37908e-05
0.00119812
4.99846e-06
-2.94762e-05
0.00123731
5.92669e-06
-3.77981e-05
0.00129016
7.07759e-06
-5.11903e-05
8.49378e-06
-7.48113e-05
0.00136696
0.000997875
1.50477e-07
-1.03267e-05
0.00100485
3.10398e-07
-6.82436e-06
0.00101134
4.54732e-07
-6.2694e-06
0.0010178
5.83758e-07
-6.17808e-06
0.0010244
7.03647e-07
-6.26787e-06
0.00103133
8.20975e-07
-6.5371e-06
0.00103876
9.4031e-07
-6.98391e-06
0.00104686
1.06518e-06
-7.6015e-06
0.0010558
1.1996e-06
-8.39676e-06
0.0010658
1.34872e-06
-9.39359e-06
0.0010771
1.51887e-06
-1.06318e-05
0.00109
1.71767e-06
-1.21692e-05
0.00110492
1.95433e-06
-1.40881e-05
0.00112236
2.24024e-06
-1.65097e-05
0.00114305
2.58952e-06
-1.9621e-05
0.00116802
3.01952e-06
-2.37303e-05
0.00119885
3.55104e-06
-2.93896e-05
0.00123825
4.20803e-06
-3.76756e-05
0.00129133
5.01307e-06
-5.10194e-05
5.99909e-06
-7.45899e-05
0.00136842
0.000997818
7.56759e-08
-1.03145e-05
0.00100478
1.56332e-07
-6.80359e-06
0.00101125
2.29181e-07
-6.24949e-06
0.00101771
2.94163e-07
-6.16336e-06
0.00102431
3.54635e-07
-6.2557e-06
0.00103124
4.14292e-07
-6.52304e-06
0.00103867
4.75518e-07
-6.96499e-06
0.00104677
5.39941e-07
-7.57591e-06
0.00105573
6.09444e-07
-8.36282e-06
0.00106574
6.86583e-07
-9.34948e-06
0.00107706
7.74594e-07
-1.05757e-05
0.00109
8.77406e-07
-1.20992e-05
0.00110496
9.99797e-07
-1.40026e-05
0.00112246
1.14765e-06
-1.6407e-05
0.00114322
1.3282e-06
-1.94992e-05
0.00116828
1.55026e-06
-2.35874e-05
0.00119923
1.82425e-06
-2.92229e-05
0.00123876
2.16199e-06
-3.74815e-05
0.00129199
2.57338e-06
-5.07925e-05
3.08339e-06
-7.43346e-05
0.00136924
0.00099779
4.52352e-11
-1.03091e-05
0.00100474
9.5786e-11
-6.79404e-06
0.00101121
1.47644e-10
-6.23991e-06
0.00101766
2.0261e-10
-6.15612e-06
0.00102427
2.62195e-10
-6.25008e-06
0.0010312
3.27869e-10
-6.51717e-06
0.00103863
4.01239e-10
-6.95767e-06
0.00104674
4.84158e-10
-7.56675e-06
0.0010557
5.78778e-10
-8.35169e-06
0.00106572
6.87599e-10
-9.33624e-06
0.00107706
8.13506e-10
-1.05601e-05
0.00109001
9.59812e-10
-1.20811e-05
0.001105
1.1303e-09
-1.39814e-05
0.00112253
1.32924e-09
-1.63821e-05
0.00114332
1.56142e-09
-1.94697e-05
0.00116842
1.83199e-09
-2.3552e-05
0.00119943
2.14627e-09
-2.918e-05
0.00123902
2.50924e-09
-3.74287e-05
0.00129232
2.9215e-09
-5.07263e-05
3.403e-09
-7.42614e-05
0.00136966
0.00099779
-7.55864e-08
-1.03091e-05
0.00100474
-1.56143e-07
-6.79404e-06
0.00101121
-2.28889e-07
-6.23991e-06
0.00101766
-2.93762e-07
-6.15612e-06
0.00102427
-3.54116e-07
-6.25008e-06
0.0010312
-4.13643e-07
-6.51717e-06
0.00103863
-4.74724e-07
-6.95767e-06
0.00104674
-5.38983e-07
-7.56674e-06
0.0010557
-6.08298e-07
-8.35169e-06
0.00106572
-6.85222e-07
-9.33623e-06
0.00107706
-7.72984e-07
-1.05601e-05
0.00109002
-8.75506e-07
-1.20811e-05
0.001105
-9.9756e-07
-1.39814e-05
0.00112253
-1.14502e-06
-1.63821e-05
0.00114332
-1.32511e-06
-1.94697e-05
0.00116842
-1.54664e-06
-2.3552e-05
0.00119943
-1.82e-06
-2.91799e-05
0.00123902
-2.15702e-06
-3.74287e-05
0.00129232
-2.56759e-06
-5.07262e-05
-3.07666e-06
-7.42613e-05
0.00136966
0.000997818
-1.50391e-07
-1.03145e-05
0.00100478
-3.10215e-07
-6.80358e-06
0.00101125
-4.5445e-07
-6.24949e-06
0.00101771
-5.83371e-07
-6.16336e-06
0.00102431
-7.03145e-07
-6.2557e-06
0.00103124
-8.20347e-07
-6.52304e-06
0.00103867
-9.39541e-07
-6.96499e-06
0.00104677
-1.06425e-06
-7.57591e-06
0.00105573
-1.19849e-06
-8.36282e-06
0.00106574
-1.3474e-06
-9.34947e-06
0.00107706
-1.51731e-06
-1.05757e-05
0.00109
-1.71583e-06
-1.20992e-05
0.00110496
-1.95217e-06
-1.40026e-05
0.00112246
-2.2377e-06
-1.6407e-05
0.00114322
-2.58653e-06
-1.94992e-05
0.00116828
-3.01601e-06
-2.35873e-05
0.00119923
-3.54694e-06
-2.92228e-05
0.00123876
-4.20322e-06
-3.74815e-05
0.00129199
-5.00747e-06
-5.07924e-05
-5.99258e-06
-7.43345e-05
0.00136924
0.000997875
-2.22731e-07
-1.03267e-05
0.00100485
-4.58475e-07
-6.82436e-06
0.00101134
-6.72265e-07
-6.2694e-06
0.0010178
-8.64596e-07
-6.17808e-06
0.0010244
-1.04214e-06
-6.26787e-06
0.00103133
-1.21283e-06
-6.5371e-06
0.00103876
-1.38315e-06
-6.9839e-06
0.00104686
-1.55849e-06
-7.60149e-06
0.0010558
-1.74482e-06
-8.39675e-06
0.0010658
-1.94969e-06
-9.39357e-06
0.0010771
-2.18234e-06
-1.06318e-05
0.00109
-2.45388e-06
-1.21692e-05
0.00110492
-2.77776e-06
-1.40881e-05
0.00112236
-3.17055e-06
-1.65097e-05
0.00114305
-3.65291e-06
-1.96209e-05
0.00116802
-4.25049e-06
-2.37303e-05
0.00119885
-4.99457e-06
-2.93895e-05
0.00123825
-5.92215e-06
-3.76755e-05
0.00129134
-7.07229e-06
-5.10192e-05
-8.48763e-06
-7.45896e-05
0.00136842
0.000997961
-2.87408e-07
-1.035e-05
0.00100496
-5.9162e-07
-6.86158e-06
0.00101146
-8.74658e-07
-6.30232e-06
0.00101793
-1.12987e-06
-6.20159e-06
0.00102453
-1.35943e-06
-6.28735e-06
0.00103145
-1.5752e-06
-6.55696e-06
0.00103886
-1.78865e-06
-7.00453e-06
0.00104694
-2.00762e-06
-7.62166e-06
0.00105585
-2.23934e-06
-8.41558e-06
0.0010658
-2.49261e-06
-9.41102e-06
0.00107705
-2.77825e-06
-1.06487e-05
0.00108989
-3.10932e-06
-1.21872e-05
0.00110473
-3.5019e-06
-1.411e-05
0.00112207
-3.97616e-06
-1.65392e-05
0.00114264
-4.55773e-06
-1.96629e-05
0.00116746
-5.27904e-06
-2.37907e-05
0.00119812
-6.18072e-06
-2.94761e-05
0.00123731
-7.31216e-06
-3.77979e-05
0.00129016
-8.72852e-06
-5.119e-05
-1.04736e-05
-7.4811e-05
0.00136696
0.000998071
-3.28541e-07
-1.03939e-05
0.00100509
-6.90207e-07
-6.92405e-06
0.00101163
-1.05997e-06
-6.35238e-06
0.00101813
-1.38385e-06
-6.24339e-06
0.00102476
-1.64826e-06
-6.33932e-06
0.00103169
-1.87702e-06
-6.63143e-06
0.0010391
-2.09146e-06
-7.10764e-06
0.00104716
-2.30385e-06
-7.7576e-06
0.00105603
-2.52488e-06
-8.58777e-06
0.00106593
-2.76669e-06
-9.62187e-06
0.00107709
-3.04276e-06
-1.08997e-05
0.00108983
-3.36819e-06
-1.24794e-05
0.00110454
-3.76089e-06
-1.44443e-05
0.00112172
-4.24325e-06
-1.69173e-05
0.0011421
-4.84386e-06
-2.00872e-05
0.00116668
-5.59955e-06
-2.4265e-05
0.00119707
-6.55782e-06
-3.00059e-05
0.00123593
-7.77921e-06
-3.83915e-05
0.0012884
-9.3398e-06
-5.18598e-05
-1.12953e-05
-7.55619e-05
0.00136479
0.000998177
-2.8441e-07
-1.04826e-05
0.0010052
-6.88233e-07
-7.02377e-06
0.00101172
-1.17514e-06
-6.40038e-06
0.00101815
-1.57458e-06
-6.24626e-06
0.0010247
-1.88828e-06
-6.30521e-06
0.00103154
-2.16443e-06
-6.55426e-06
0.00103885
-2.42113e-06
-6.98139e-06
0.0010468
-2.6643e-06
-7.58264e-06
0.00105554
-2.90358e-06
-8.36943e-06
0.0010653
-3.15197e-06
-9.36866e-06
0.0010763
-3.42338e-06
-1.06224e-05
0.00108886
-3.73286e-06
-1.21909e-05
0.00110336
-4.09826e-06
-1.41591e-05
0.00112031
-4.54198e-06
-1.66514e-05
0.00114042
-5.09287e-06
-1.98584e-05
0.0011647
-5.78861e-06
-2.40929e-05
0.00119474
-6.67902e-06
-2.99128e-05
0.00123319
-7.8299e-06
-3.84032e-05
0.00128519
-9.32887e-06
-5.20069e-05
-1.12208e-05
-7.58667e-05
0.00136098
0.000998238
-2.14679e-08
-1.06714e-05
0.00100548
-7.09175e-07
-7.22455e-06
0.0010122
-1.29727e-06
-6.58985e-06
0.00101868
-1.55153e-06
-6.50549e-06
0.00102516
-1.69948e-06
-6.66422e-06
0.00103184
-1.83934e-06
-7.01056e-06
0.00103892
-1.97438e-06
-7.52973e-06
0.00104658
-2.1046e-06
-8.21835e-06
0.00105501
-2.23974e-06
-9.08641e-06
0.00106441
-2.39059e-06
-1.01599e-05
0.00107503
-2.56652e-06
-1.14814e-05
0.00108719
-2.7775e-06
-1.31129e-05
0.00110127
-3.03625e-06
-1.51419e-05
0.00111779
-3.35984e-06
-1.76956e-05
0.00113743
-3.77143e-06
-2.0968e-05
0.00116122
-4.30269e-06
-2.52757e-05
0.00119072
-4.99775e-06
-3.11805e-05
0.00122859
-5.91952e-06
-3.97726e-05
0.00127993
-7.1674e-06
-5.35003e-05
-8.79484e-06
-7.75091e-05
0.00135501
0.0009965
2.12181e-06
-1.07741e-05
0.0010033
-6.27637e-07
-6.88602e-06
0.00100958
-1.63415e-06
-5.93977e-06
0.00101561
-1.93904e-06
-5.64274e-06
0.00102167
-2.16405e-06
-5.59346e-06
0.00102793
-2.34449e-06
-5.75005e-06
0.00103454
-2.46588e-06
-6.11953e-06
0.00104168
-2.54717e-06
-6.70242e-06
0.00104956
-2.61131e-06
-7.50531e-06
0.00105839
-2.67197e-06
-8.55019e-06
0.00106844
-2.73709e-06
-9.87621e-06
0.00108002
-2.81396e-06
-1.1542e-05
0.00109353
-2.91138e-06
-1.36329e-05
0.00110949
-3.04083e-06
-1.62751e-05
0.0011286
-3.21799e-06
-1.96632e-05
0.00115188
-3.46496e-06
-2.41161e-05
0.00118089
-3.81372e-06
-3.02002e-05
0.0012183
-4.31243e-06
-3.90141e-05
0.0012692
-5.04696e-06
-5.30148e-05
-6.01377e-06
-7.73553e-05
0.00134377
0.000996197
3.57158e-06
-1.07092e-05
0.00100166
-3.42153e-07
-5.75122e-06
0.00100567
-8.51889e-07
-4.78587e-06
0.00100955
-1.21335e-06
-4.60987e-06
0.0010136
-1.52965e-06
-4.68133e-06
0.00101797
-1.73106e-06
-4.97988e-06
0.00102283
-1.82924e-06
-5.50394e-06
0.00102839
-1.86491e-06
-6.23729e-06
0.00103483
-1.86671e-06
-7.17906e-06
0.00104235
-1.84909e-06
-8.34976e-06
0.00105123
-1.81967e-06
-9.78992e-06
0.00106176
-1.78386e-06
-1.15612e-05
0.00107435
-1.74683e-06
-1.37523e-05
0.00108952
-1.71444e-06
-1.64935e-05
0.00110798
-1.69436e-06
-1.99847e-05
0.00113076
-1.69765e-06
-2.45531e-05
0.00115947
-1.7419e-06
-3.07772e-05
0.00119679
-1.85715e-06
-3.97761e-05
0.0012479
-2.12435e-06
-5.40248e-05
-2.37854e-06
-7.87321e-05
0.001323
0.0010025
-4.16148e-06
0.00100302
-8.61427e-07
0.00100312
-9.53349e-07
0.00100312
-1.20986e-06
0.00100314
-1.54705e-06
0.00100346
-2.05854e-06
0.00100439
-2.75815e-06
0.00100616
-3.63332e-06
0.00100898
-4.68837e-06
0.00101309
-5.9526e-06
0.00101874
-7.47472e-06
0.00102628
-9.32299e-06
0.00103613
-1.15928e-05
0.00104884
-1.44223e-05
0.00106517
-1.80231e-05
0.00108621
-2.27404e-05
0.00111366
-2.91841e-05
0.00115033
-3.8533e-05
0.00120154
-5.3334e-05
-7.90913e-05
0.00127826
0.00099628
-1.01212e-05
-3.19595e-06
0.00100159
-4.53024e-06
-1.63846e-06
0.00100539
-2.91554e-06
-1.83606e-06
0.00100902
-2.05828e-06
-2.78605e-06
0.00101278
-1.3961e-06
-3.90824e-06
0.00101682
-8.87245e-07
-5.209e-06
0.00102132
-5.05787e-07
-6.75025e-06
0.00102646
-2.0748e-07
-8.5688e-06
0.00103244
4.16961e-08
-1.07088e-05
0.00103946
2.64419e-07
-1.32364e-05
0.00104775
4.77976e-07
-1.62475e-05
0.00105761
6.95045e-07
-1.9874e-05
0.00106938
9.26665e-07
-2.4291e-05
0.00108352
1.18465e-06
-2.97421e-05
0.0011006
1.48334e-06
-3.65806e-05
0.00112136
1.84165e-06
-4.53416e-05
0.00114676
2.28603e-06
-5.68716e-05
0.00117793
2.85623e-06
-7.25605e-05
0.00121578
3.59504e-06
-9.47789e-05
4.31113e-06
-0.000127083
0.00125946
0.00113137
-2.25797e-06
-3.29355e-06
0.0011247
-7.28164e-07
-2.87659e-06
0.00112012
8.9024e-08
-3.21665e-06
0.00111722
3.84448e-07
-4.1514e-06
0.00111589
5.64878e-07
-5.30629e-06
0.00111592
7.26848e-07
-6.62246e-06
0.00111718
8.73582e-07
-8.14056e-06
0.00111962
1.01388e-06
-9.90403e-06
0.00112328
1.16215e-06
-1.19614e-05
0.00112825
1.32833e-06
-1.43811e-05
0.00113468
1.5204e-06
-1.72567e-05
0.00114277
1.74731e-06
-2.07096e-05
0.00115283
2.01997e-06
-2.49044e-05
0.00116524
2.35257e-06
-3.00701e-05
0.00118052
2.76457e-06
-3.65391e-05
0.00119934
3.28287e-06
-4.48143e-05
0.0012226
3.94452e-06
-5.56913e-05
0.00125136
4.80216e-06
-7.04822e-05
0.00128649
5.91346e-06
-9.14695e-05
7.19765e-06
-0.000121835
0.0013267
0.00114271
2.11421e-07
-8.28322e-06
0.00114179
5.86473e-07
-7.27461e-06
0.00114178
1.06783e-06
-6.91211e-06
0.00114242
1.39401e-06
-7.29241e-06
0.00114376
1.60964e-06
-7.97893e-06
0.00114582
1.78761e-06
-8.86917e-06
0.00114862
1.95092e-06
-9.99434e-06
0.00115223
2.10834e-06
-1.14015e-05
0.00115675
2.2716e-06
-1.31401e-05
0.00116235
2.45359e-06
-1.52729e-05
0.00116921
2.66655e-06
-1.78831e-05
0.00117758
2.92326e-06
-2.10834e-05
0.00118776
3.23911e-06
-2.50295e-05
0.00120014
3.63345e-06
-2.99406e-05
0.00121525
4.13135e-06
-3.61363e-05
0.00123375
4.76566e-06
-4.4101e-05
0.00125652
5.58003e-06
-5.46055e-05
0.00128461
6.63311e-06
-6.89266e-05
0.00131881
7.99789e-06
-8.93048e-05
9.65816e-06
-0.000118765
0.00135776
0.0011448
3.97922e-07
-8.2104e-06
0.00114563
7.36909e-07
-8.2025e-06
0.0011472
1.09037e-06
-8.18185e-06
0.0011494
1.41389e-06
-8.7275e-06
0.00115223
1.66945e-06
-9.54999e-06
0.00115567
1.87756e-06
-1.05421e-05
0.00115975
2.06359e-06
-1.17232e-05
0.00116454
2.24345e-06
-1.31424e-05
0.00117015
2.43054e-06
-1.48547e-05
0.00117673
2.63885e-06
-1.69272e-05
0.00118448
2.88284e-06
-1.94463e-05
0.00119364
3.17793e-06
-2.25271e-05
0.00120453
3.54209e-06
-2.63251e-05
0.00121752
3.99741e-06
-3.10572e-05
0.00123315
4.57189e-06
-3.7038e-05
0.00125209
5.30151e-06
-4.47449e-05
0.00127519
6.23264e-06
-5.49376e-05
0.00130351
7.42458e-06
-6.8875e-05
0.00133783
8.9487e-06
-8.87735e-05
1.08041e-05
-0.000117612
0.00137679
0.00114468
3.65584e-07
-7.85984e-06
0.0011458
7.00301e-07
-8.10475e-06
0.00114778
9.96472e-07
-8.2843e-06
0.00115055
1.27655e-06
-8.87737e-06
0.00115407
1.53166e-06
-9.68888e-06
0.00115828
1.76231e-06
-1.0649e-05
0.00116316
1.9797e-06
-1.17808e-05
0.00116876
2.19534e-06
-1.3135e-05
0.00117518
2.41982e-06
-1.47711e-05
0.00118254
2.66462e-06
-1.67593e-05
0.00119105
2.94287e-06
-1.91874e-05
0.00120094
3.2698e-06
-2.21698e-05
0.00121252
3.66363e-06
-2.58598e-05
0.00122619
4.14687e-06
-3.0471e-05
0.00124247
4.74786e-06
-3.63135e-05
0.00126203
5.50247e-06
-4.38586e-05
0.00128576
6.456e-06
-5.3858e-05
0.00131467
7.66488e-06
-6.75586e-05
0.00134958
9.19614e-06
-8.71613e-05
1.10628e-05
-0.000115628
0.00138909
0.00114449
2.94144e-07
-7.68413e-06
0.00114564
5.76759e-07
-7.95832e-06
0.00114773
8.16179e-07
-8.2582e-06
0.00115066
1.03454e-06
-8.92471e-06
0.00115438
1.24421e-06
-9.77729e-06
0.00115884
1.44708e-06
-1.07753e-05
0.00116401
1.64641e-06
-1.19461e-05
0.00116994
1.84859e-06
-1.33353e-05
0.00117671
2.06168e-06
-1.49978e-05
0.00118446
2.29521e-06
-1.7001e-05
0.00119337
2.56046e-06
-1.94304e-05
0.00120369
2.87094e-06
-2.2398e-05
0.00121572
3.24304e-06
-2.60547e-05
0.00122987
3.69709e-06
-3.06114e-05
0.00124664
4.25856e-06
-3.63751e-05
0.00126674
4.95934e-06
-4.38132e-05
0.00129102
5.83909e-06
-5.3672e-05
0.00132054
6.94608e-06
-6.71909e-05
0.0013561
8.33503e-06
-8.65611e-05
1.00212e-05
-0.000114744
0.00139633
0.00114433
2.18763e-07
-7.59457e-06
0.00114546
4.3543e-07
-7.84834e-06
0.00114754
6.20618e-07
-8.19361e-06
0.00115049
7.8525e-07
-8.89483e-06
0.00115425
9.44889e-07
-9.75275e-06
0.00115878
1.1057e-06
-1.07403e-05
0.00116404
1.26947e-06
-1.18942e-05
0.00117009
1.43933e-06
-1.32614e-05
0.00117702
1.62069e-06
-1.48968e-05
0.00118495
1.82069e-06
-1.68677e-05
0.00119407
2.04802e-06
-1.926e-05
0.00120463
2.31317e-06
-2.21854e-05
0.00121693
2.62909e-06
-2.57941e-05
0.00123137
3.01189e-06
-3.02956e-05
0.00124848
3.48182e-06
-3.59952e-05
0.00126895
4.06408e-06
-4.33576e-05
0.00129365
4.78977e-06
-5.31254e-05
0.00132363
5.69635e-06
-6.65334e-05
0.00135972
6.82575e-06
-8.57657e-05
8.19695e-06
-0.000113785
0.00140052
0.00114421
1.44564e-07
-7.54645e-06
0.00114531
2.90336e-07
-7.77867e-06
0.00114739
4.16763e-07
-8.14092e-06
0.00115033
5.27612e-07
-8.86538e-06
0.00115411
6.3414e-07
-9.73309e-06
0.00115866
7.43142e-07
-1.07199e-05
0.00116396
8.56558e-07
-1.18696e-05
0.00117005
9.75926e-07
-1.32322e-05
0.00117703
1.10448e-06
-1.48622e-05
0.00118504
1.24701e-06
-1.68264e-05
0.00119426
1.40952e-06
-1.92098e-05
0.00120493
1.59925e-06
-2.21234e-05
0.00121736
1.82517e-06
-2.57163e-05
0.00123196
2.09843e-06
-3.01969e-05
0.00124926
2.43297e-06
-3.58686e-05
0.00126994
2.84609e-06
-4.31944e-05
0.0012949
3.35888e-06
-5.29148e-05
0.00132519
3.99651e-06
-6.62612e-05
0.00136162
4.78614e-06
-8.54141e-05
5.74429e-06
-0.00011334
0.00140283
0.00114414
7.18472e-08
-7.52115e-06
0.00114522
1.44979e-07
-7.73865e-06
0.00114729
2.09107e-07
-8.10617e-06
0.00115023
2.65108e-07
-8.84344e-06
0.00115401
3.18534e-07
-9.71796e-06
0.00115856
3.73544e-07
-1.07035e-05
0.00116387
4.31514e-07
-1.18474e-05
0.00116998
4.93128e-07
-1.3202e-05
0.00117698
5.59872e-07
-1.4822e-05
0.00118502
6.34144e-07
-1.67741e-05
0.00119428
7.19001e-07
-1.91431e-05
0.001205
8.18146e-07
-2.20399e-05
0.0012175
9.36127e-07
-2.56136e-05
0.00123219
1.07861e-06
-3.00721e-05
0.00124959
1.25266e-06
-3.57188e-05
0.0012704
1.46699e-06
-4.30159e-05
0.00129551
1.73221e-06
-5.27031e-05
0.00132597
2.06094e-06
-6.60105e-05
0.00136262
2.46647e-06
-8.51168e-05
2.96092e-06
-0.000112993
0.00140406
0.0011441
4.06368e-11
-7.5102e-06
0.00114518
8.46802e-11
-7.72051e-06
0.00114724
1.30747e-10
-8.08925e-06
0.00115018
1.80135e-10
-8.83211e-06
0.00115396
2.34084e-10
-9.71032e-06
0.00115851
2.9389e-10
-1.06959e-05
0.00116382
3.61009e-10
-1.18374e-05
0.00116994
4.37135e-10
-1.31886e-05
0.00117695
5.24262e-10
-1.48049e-05
0.001185
6.24731e-10
-1.67526e-05
0.00119427
7.4127e-10
-1.91165e-05
0.00120502
8.77043e-10
-2.20075e-05
0.00121755
1.0357e-09
-2.55744e-05
0.00123227
1.22144e-09
-3.00252e-05
0.00124972
1.43904e-09
-3.56628e-05
0.00127058
1.69393e-09
-4.29492e-05
0.00129575
1.99211e-09
-5.26235e-05
0.0013263
2.3403e-09
-6.59154e-05
0.00136304
2.74436e-09
-8.50025e-05
3.214e-09
-0.00011286
0.0014046
0.0011441
-7.17666e-08
-7.5102e-06
0.00114518
-1.44811e-07
-7.72051e-06
0.00114724
-2.08847e-07
-8.08925e-06
0.00115018
-2.64751e-07
-8.83211e-06
0.00115396
-3.1807e-07
-9.71032e-06
0.00115851
-3.72962e-07
-1.06959e-05
0.00116382
-4.30799e-07
-1.18374e-05
0.00116994
-4.92262e-07
-1.31886e-05
0.00117695
-5.58834e-07
-1.48049e-05
0.001185
-6.32907e-07
-1.67526e-05
0.00119427
-7.17533e-07
-1.91165e-05
0.00120502
-8.1641e-07
-2.20075e-05
0.00121755
-9.34077e-07
-2.55744e-05
0.00123227
-1.07619e-06
-3.00252e-05
0.00124972
-1.24981e-06
-3.56628e-05
0.00127058
-1.46364e-06
-4.29492e-05
0.00129575
-1.72827e-06
-5.26234e-05
0.0013263
-2.05631e-06
-6.59153e-05
0.00136304
-2.46104e-06
-8.50025e-05
-2.95456e-06
-0.00011286
0.0014046
0.00114414
-1.44486e-07
-7.52115e-06
0.00114522
-2.90173e-07
-7.73865e-06
0.00114729
-4.16512e-07
-8.10617e-06
0.00115023
-5.27266e-07
-8.84344e-06
0.00115401
-6.33691e-07
-9.71795e-06
0.00115856
-7.42577e-07
-1.07035e-05
0.00116387
-8.55865e-07
-1.18474e-05
0.00116998
-9.75087e-07
-1.3202e-05
0.00117698
-1.10347e-06
-1.4822e-05
0.00118502
-1.24581e-06
-1.67741e-05
0.00119428
-1.4081e-06
-1.91431e-05
0.001205
-1.59757e-06
-2.20399e-05
0.0012175
-1.82318e-06
-2.56135e-05
0.00123219
-2.09609e-06
-3.00721e-05
0.00124959
-2.43021e-06
-3.57187e-05
0.0012704
-2.84285e-06
-4.30159e-05
0.00129551
-3.35507e-06
-5.2703e-05
0.00132597
-3.99202e-06
-6.60104e-05
0.00136262
-4.78089e-06
-8.51167e-05
-5.73815e-06
-0.000112993
0.00140406
0.00114421
-2.1869e-07
-7.54645e-06
0.00114531
-4.35276e-07
-7.77866e-06
0.00114739
-6.2038e-07
-8.14091e-06
0.00115033
-7.84923e-07
-8.86537e-06
0.00115411
-9.44463e-07
-9.73308e-06
0.00115866
-1.10516e-06
-1.07199e-05
0.00116396
-1.26882e-06
-1.18696e-05
0.00117005
-1.43853e-06
-1.32321e-05
0.00117703
-1.61973e-06
-1.48621e-05
0.00118504
-1.81956e-06
-1.68263e-05
0.00119426
-2.04667e-06
-1.92098e-05
0.00120493
-2.31158e-06
-2.21234e-05
0.00121736
-2.62721e-06
-2.57163e-05
0.00123196
-3.00968e-06
-3.01968e-05
0.00124926
-3.47921e-06
-3.58685e-05
0.00126994
-4.06101e-06
-4.31943e-05
0.0012949
-4.78616e-06
-5.29147e-05
0.00132519
-5.69211e-06
-6.6261e-05
0.00136162
-6.82078e-06
-8.54138e-05
-8.19114e-06
-0.00011334
0.00140283
0.00114433
-2.94077e-07
-7.59456e-06
0.00114546
-5.76618e-07
-7.84834e-06
0.00114754
-8.1596e-07
-8.1936e-06
0.00115049
-1.03423e-06
-8.89482e-06
0.00115425
-1.24382e-06
-9.75274e-06
0.00115878
-1.44658e-06
-1.07403e-05
0.00116404
-1.64581e-06
-1.18942e-05
0.00117009
-1.84786e-06
-1.32614e-05
0.00117702
-2.06081e-06
-1.48968e-05
0.00118495
-2.29417e-06
-1.68677e-05
0.00119407
-2.55923e-06
-1.926e-05
0.00120463
-2.86947e-06
-2.21853e-05
0.00121693
-3.24131e-06
-2.5794e-05
0.00123137
-3.69506e-06
-3.02955e-05
0.00124848
-4.25617e-06
-3.59951e-05
0.00126895
-4.95652e-06
-4.33574e-05
0.00129365
-5.83578e-06
-5.31252e-05
0.00132363
-6.94219e-06
-6.65331e-05
0.00135972
-8.33046e-06
-8.57653e-05
-1.00158e-05
-0.000113784
0.00140052
0.00114449
-3.65524e-07
-7.68413e-06
0.00114564
-7.00176e-07
-7.95831e-06
0.00114773
-9.96278e-07
-8.25818e-06
0.00115066
-1.27628e-06
-8.92469e-06
0.00115438
-1.53131e-06
-9.77726e-06
0.00115884
-1.76187e-06
-1.07753e-05
0.00116401
-1.97916e-06
-1.1946e-05
0.00116994
-2.19469e-06
-1.33352e-05
0.00117671
-2.41904e-06
-1.49977e-05
0.00118446
-2.66369e-06
-1.70009e-05
0.00119337
-2.94177e-06
-1.94304e-05
0.00120369
-3.26851e-06
-2.23979e-05
0.00121572
-3.6621e-06
-2.60546e-05
0.00122987
-4.14506e-06
-3.06112e-05
0.00124665
-4.74574e-06
-3.63749e-05
0.00126674
-5.49997e-06
-4.3813e-05
0.00129102
-6.45306e-06
-5.36717e-05
0.00132054
-7.66143e-06
-6.71905e-05
0.00135611
-9.19208e-06
-8.65606e-05
-1.1058e-05
-0.000114743
0.00139633
0.00114468
-3.97873e-07
-7.85983e-06
0.0011458
-7.36804e-07
-8.10473e-06
0.00114778
-1.0902e-06
-8.28428e-06
0.00115055
-1.41366e-06
-8.87735e-06
0.00115407
-1.66915e-06
-9.68885e-06
0.00115828
-1.87718e-06
-1.0649e-05
0.00116316
-2.06313e-06
-1.17807e-05
0.00116876
-2.2429e-06
-1.31349e-05
0.00117518
-2.42987e-06
-1.4771e-05
0.00118254
-2.63806e-06
-1.67592e-05
0.00119105
-2.8819e-06
-1.91873e-05
0.00120094
-3.17683e-06
-2.21697e-05
0.00121252
-3.54079e-06
-2.58597e-05
0.00122619
-3.99588e-06
-3.04708e-05
0.00124247
-4.57009e-06
-3.63133e-05
0.00126204
-5.29939e-06
-4.38584e-05
0.00128576
-6.23016e-06
-5.38576e-05
0.00131468
-7.42166e-06
-6.75582e-05
0.00134958
-8.94526e-06
-8.71608e-05
-1.08001e-05
-0.000115627
0.00138909
0.0011448
-2.11382e-07
-8.21039e-06
0.00114563
-5.86389e-07
-8.20248e-06
0.0011472
-1.0677e-06
-8.18183e-06
0.0011494
-1.39383e-06
-8.72747e-06
0.00115223
-1.6094e-06
-9.54995e-06
0.00115567
-1.78731e-06
-1.05421e-05
0.00115975
-1.95054e-06
-1.17232e-05
0.00116454
-2.1079e-06
-1.31423e-05
0.00117015
-2.27106e-06
-1.48547e-05
0.00117673
-2.45295e-06
-1.69271e-05
0.00118448
-2.6658e-06
-1.94462e-05
0.00119364
-2.92239e-06
-2.2527e-05
0.00120453
-3.23807e-06
-2.6325e-05
0.00121753
-3.63224e-06
-3.1057e-05
0.00123316
-4.12992e-06
-3.70378e-05
0.00125209
-4.76399e-06
-4.47446e-05
0.0012752
-5.57806e-06
-5.49373e-05
0.00130351
-6.63079e-06
-6.88745e-05
0.00133783
-7.99517e-06
-8.87729e-05
-9.65496e-06
-0.000117611
0.00137679
0.00114271
2.258e-06
-8.28321e-06
0.00114179
7.28229e-07
-7.27458e-06
0.00114178
-8.8922e-08
-6.91208e-06
0.00114242
-3.84303e-07
-7.29237e-06
0.00114376
-5.6469e-07
-7.97889e-06
0.00114582
-7.26616e-07
-8.86912e-06
0.00114862
-8.73301e-07
-9.99427e-06
0.00115223
-1.01355e-06
-1.14015e-05
0.00115675
-1.16176e-06
-1.314e-05
0.00116235
-1.32787e-06
-1.52728e-05
0.00116921
-1.51986e-06
-1.7883e-05
0.00117758
-1.74668e-06
-2.10833e-05
0.00118776
-2.01922e-06
-2.50293e-05
0.00120014
-2.3517e-06
-2.99404e-05
0.00121525
-2.76355e-06
-3.61361e-05
0.00123376
-3.28167e-06
-4.41007e-05
0.00125653
-3.94311e-06
-5.46051e-05
0.00128461
-4.80051e-06
-6.89261e-05
0.00131882
-5.91152e-06
-8.93041e-05
-7.19534e-06
-0.000118764
0.00135777
0.00113137
1.01211e-05
-3.29353e-06
0.0011247
4.53023e-06
-2.87656e-06
0.00112012
2.91557e-06
-3.21661e-06
0.00111722
2.05833e-06
-4.15135e-06
0.00111589
1.39618e-06
-5.30624e-06
0.00111592
8.87345e-07
-6.62239e-06
0.00111718
5.05911e-07
-8.14048e-06
0.00111962
2.07629e-07
-9.90394e-06
0.00112328
-4.15201e-08
-1.19613e-05
0.00112825
-2.64209e-07
-1.4381e-05
0.00113468
-4.77725e-07
-1.72565e-05
0.00114278
-6.94747e-07
-2.07094e-05
0.00115284
-9.26311e-07
-2.49042e-05
0.00116525
-1.18423e-06
-3.00699e-05
0.00118052
-1.48284e-06
-3.65389e-05
0.00119934
-1.84106e-06
-4.4814e-05
0.0012226
-2.28533e-06
-5.56908e-05
0.00125136
-2.8554e-06
-7.04817e-05
0.00128649
-3.59405e-06
-9.14688e-05
-4.30993e-06
-0.000121834
0.00132671
0.00099628
-3.19593e-06
0.00100159
-1.63843e-06
0.00100539
-1.83601e-06
0.00100902
-2.78599e-06
0.00101278
-3.90817e-06
0.00101682
-5.20892e-06
0.00102132
-6.75016e-06
0.00102646
-8.5687e-06
0.00103244
-1.07086e-05
0.00103946
-1.32363e-05
0.00104776
-1.62474e-05
0.00105761
-1.98739e-05
0.00106939
-2.42908e-05
0.00108352
-2.97419e-05
0.0011006
-3.65803e-05
0.00112136
-4.53413e-05
0.00114676
-5.68712e-05
0.00117793
-7.256e-05
0.00121579
-9.47782e-05
-0.000127082
0.00125947
0.000996944
-1.02407e-05
-1.50395e-06
0.00100357
-5.74252e-06
-2.52003e-06
0.00100957
-4.16195e-06
-3.67729e-06
0.00101523
-3.18916e-06
-5.2597e-06
0.00102083
-2.40459e-06
-7.09513e-06
0.00102651
-1.74669e-06
-9.14442e-06
0.00103243
-1.19971e-06
-1.14709e-05
0.00103875
-7.36869e-07
-1.41532e-05
0.00104565
-3.31799e-07
-1.72767e-05
0.00105333
3.25743e-08
-2.09482e-05
0.00106201
3.72786e-07
-2.53007e-05
0.00107194
7.07204e-07
-3.05064e-05
0.0010834
1.04976e-06
-3.67951e-05
0.00109672
1.41423e-06
-4.44755e-05
0.00111229
1.81566e-06
-5.39717e-05
0.00113056
2.2742e-06
-6.58878e-05
0.00115198
2.81856e-06
-8.11001e-05
0.00117681
3.48869e-06
-0.000100887
0.00120483
4.33019e-06
-0.000127124
5.20007e-06
-0.000162156
0.00123471
0.00114304
-7.27406e-06
-1.20425e-06
0.00114197
-5.1887e-06
-2.35824e-06
0.00114177
-3.70498e-06
-3.47072e-06
0.00114216
-2.88996e-06
-4.84612e-06
0.00114321
-2.27303e-06
-6.48611e-06
0.00114493