/*--------------------------------*- C++ -*----------------------------------*\
  =========                 |
  \\      /  F ield         | OpenFOAM: The Open Source CFD Toolbox
   \\    /   O peration     | Website:  https://openfoam.org
    \\  /    A nd           | Version:  10
     \\/     M anipulation  |
\*---------------------------------------------------------------------------*/
FoamFile
{
    format      ascii;
    class       volScalarField;
    location    "500";
    object      rho;
}
// * * * * * * * * * * * * * * * * * * * * * * * * * * * * * * * * * * * * * //

dimensions      [1 -3 0 0 0 0 0];

internalField   nonuniform List<scalar> 
112000
(
0.458393
0.456967
0.455816
0.455119
0.454611
0.454116
0.453574
0.452967
0.452276
0.451478
0.450544
0.449441
0.448127
0.446546
0.444621
0.442244
0.439255
0.435399
0.430188
0.423772
0.454821
0.454698
0.454432
0.454204
0.453983
0.453706
0.453344
0.452886
0.452321
0.451629
0.450787
0.449763
0.448515
0.446989
0.445109
0.442764
0.439793
0.435936
0.430689
0.424258
0.455229
0.455267
0.455156
0.454958
0.454711
0.454407
0.454029
0.45356
0.452986
0.452288
0.451439
0.450408
0.449153
0.447617
0.445723
0.44336
0.440361
0.436464
0.43115
0.424666
0.455241
0.455143
0.454945
0.454727
0.454492
0.454215
0.453873
0.453444
0.452909
0.452248
0.451434
0.450434
0.449206
0.447693
0.445815
0.443461
0.440462
0.436552
0.431201
0.424686
0.4552
0.455093
0.454916
0.454744
0.454553
0.454311
0.453995
0.453586
0.453068
0.45242
0.451618
0.450627
0.449405
0.447895
0.446017
0.443657
0.440643
0.436706
0.431306
0.424744
0.455153
0.455045
0.454867
0.454693
0.454499
0.454252
0.453931
0.453519
0.453001
0.452355
0.451555
0.450567
0.449348
0.44784
0.44596
0.443595
0.440569
0.436612
0.431175
0.424575
0.455112
0.455004
0.454828
0.454658
0.454468
0.454226
0.45391
0.453504
0.452991
0.452349
0.451552
0.450565
0.449346
0.447835
0.44595
0.443574
0.440533
0.436551
0.431077
0.424437
0.455079
0.454973
0.454798
0.45463
0.454441
0.454199
0.453882
0.453475
0.452959
0.452314
0.451513
0.450523
0.449299
0.447781
0.445887
0.4435
0.440443
0.43644
0.430937
0.424261
0.455057
0.454951
0.454777
0.454611
0.454423
0.454181
0.453864
0.453457
0.452941
0.452295
0.451493
0.450501
0.449274
0.447752
0.445853
0.443458
0.44039
0.436371
0.430847
0.424145
0.455046
0.45494
0.454767
0.454601
0.454414
0.454172
0.453855
0.453447
0.45293
0.452284
0.451481
0.450487
0.449257
0.447732
0.445829
0.443429
0.440355
0.436328
0.430793
0.424077
0.455046
0.45494
0.454767
0.454601
0.454414
0.454172
0.453855
0.453447
0.45293
0.452284
0.451481
0.450487
0.449257
0.447732
0.445829
0.443429
0.440355
0.436328
0.430793
0.424076
0.455057
0.454951
0.454777
0.454611
0.454423
0.454181
0.453864
0.453457
0.452941
0.452295
0.451493
0.450501
0.449274
0.447752
0.445852
0.443457
0.44039
0.436371
0.430847
0.424145
0.455079
0.454973
0.454798
0.454629
0.454441
0.454199
0.453882
0.453475
0.452959
0.452314
0.451513
0.450523
0.449299
0.447781
0.445887
0.4435
0.440443
0.43644
0.430936
0.424261
0.455111
0.455004
0.454828
0.454658
0.454468
0.454226
0.45391
0.453504
0.452991
0.452349
0.451551
0.450565
0.449346
0.447835
0.445949
0.443574
0.440533
0.436551
0.431077
0.424436
0.455153
0.455045
0.454867
0.454693
0.454499
0.454252
0.453931
0.453519
0.453001
0.452355
0.451554
0.450567
0.449348
0.447839
0.44596
0.443594
0.440569
0.436611
0.431174
0.424575
0.4552
0.455093
0.454916
0.454744
0.454553
0.454311
0.453995
0.453586
0.453068
0.45242
0.451617
0.450627
0.449405
0.447895
0.446017
0.443656
0.440642
0.436706
0.431306
0.424744
0.45524
0.455143
0.454945
0.454727
0.454492
0.454215
0.453873
0.453444
0.452909
0.452247
0.451433
0.450434
0.449206
0.447692
0.445815
0.443461
0.440462
0.436552
0.4312
0.424685
0.455229
0.455267
0.455155
0.454958
0.454711
0.454407
0.454029
0.45356
0.452986
0.452288
0.451439
0.450408
0.449153
0.447617
0.445723
0.44336
0.440361
0.436464
0.43115
0.424666
0.454821
0.454698
0.454432
0.454204
0.453983
0.453706
0.453344
0.452886
0.452321
0.451629
0.450787
0.449762
0.448515
0.446989
0.445108
0.442764
0.439792
0.435935
0.430688
0.424257
0.458393
0.456967
0.455816
0.455119
0.454611
0.454116
0.453574
0.452967
0.452276
0.451478
0.450544
0.449441
0.448127
0.446545
0.44462
0.442244
0.439254
0.435398
0.430188
0.423772
0.454908
0.454787
0.454524
0.454302
0.454089
0.453824
0.453478
0.453042
0.452503
0.451843
0.45104
0.450064
0.448877
0.447426
0.445643
0.443429
0.440645
0.437083
0.432395
0.426527
0.451209
0.451525
0.451818
0.451931
0.451911
0.451789
0.451566
0.451238
0.450796
0.450226
0.449504
0.448603
0.447484
0.446096
0.444369
0.442205
0.439463
0.435934
0.431267
0.425443
0.451796
0.452356
0.452782
0.452897
0.452806
0.452591
0.452276
0.451861
0.451337
0.450688
0.449893
0.448923
0.447738
0.446287
0.444496
0.442267
0.439455
0.435847
0.431083
0.425179
0.451767
0.452311
0.452708
0.452841
0.452794
0.452626
0.452355
0.451977
0.45148
0.450851
0.450068
0.449102
0.447914
0.446452
0.444643
0.442386
0.439534
0.435872
0.43103
0.42505
0.451702
0.452281
0.452725
0.45292
0.452938
0.452827
0.452602
0.452259
0.45179
0.451181
0.450411
0.449452
0.448265
0.446796
0.444974
0.442694
0.43981
0.4361
0.43119
0.425139
0.451644
0.452231
0.452684
0.452885
0.45291
0.452809
0.452595
0.452267
0.451814
0.451221
0.450467
0.449522
0.448346
0.446886
0.445066
0.442784
0.439887
0.436153
0.431201
0.425106
0.451597
0.452187
0.452646
0.452852
0.452883
0.45279
0.452587
0.45227
0.451828
0.451247
0.450504
0.449568
0.4484
0.446944
0.445126
0.44284
0.439933
0.436181
0.431196
0.425066
0.451562
0.452153
0.452615
0.452825
0.452856
0.452764
0.452561
0.452245
0.451805
0.451225
0.450483
0.449548
0.44838
0.446924
0.445103
0.442811
0.439895
0.436127
0.431118
0.424961
0.451539
0.452131
0.452595
0.452806
0.452838
0.452746
0.452543
0.452228
0.451788
0.451208
0.450466
0.449531
0.448363
0.446904
0.445081
0.442784
0.43986
0.436081
0.431055
0.424878
0.451527
0.45212
0.452584
0.452796
0.452829
0.452736
0.452534
0.452218
0.451777
0.451197
0.450454
0.449518
0.448348
0.446889
0.445062
0.442762
0.439834
0.436048
0.431013
0.424824
0.451527
0.45212
0.452584
0.452796
0.452829
0.452736
0.452534
0.452218
0.451777
0.451197
0.450454
0.449518
0.448348
0.446889
0.445062
0.442762
0.439834
0.436048
0.431013
0.424824
0.451539
0.452131
0.452595
0.452806
0.452838
0.452746
0.452543
0.452228
0.451788
0.451208
0.450466
0.449531
0.448362
0.446904
0.445081
0.442784
0.43986
0.436081
0.431055
0.424878
0.451562
0.452153
0.452615
0.452825
0.452856
0.452764
0.452561
0.452245
0.451805
0.451225
0.450483
0.449548
0.44838
0.446924
0.445103
0.442811
0.439895
0.436127
0.431118
0.424961
0.451597
0.452187
0.452646
0.452852
0.452883
0.45279
0.452586
0.45227
0.451828
0.451247
0.450503
0.449568
0.4484
0.446944
0.445126
0.44284
0.439933
0.436181
0.431196
0.425066
0.451644
0.452231
0.452684
0.452885
0.45291
0.452809
0.452595
0.452267
0.451814
0.451221
0.450467
0.449522
0.448346
0.446886
0.445066
0.442783
0.439887
0.436153
0.4312
0.425105
0.451702
0.452281
0.452725
0.45292
0.452938
0.452827
0.452602
0.452259
0.45179
0.451181
0.450411
0.449452
0.448265
0.446796
0.444973
0.442694
0.439809
0.4361
0.431189
0.425138
0.451767
0.452311
0.452708
0.452841
0.452794
0.452626
0.452355
0.451976
0.45148
0.450851
0.450068
0.449102
0.447914
0.446452
0.444643
0.442385
0.439534
0.435871
0.43103
0.425049
0.451796
0.452356
0.452781
0.452897
0.452806
0.452591
0.452276
0.451861
0.451336
0.450688
0.449893
0.448923
0.447738
0.446286
0.444496
0.442267
0.439454
0.435846
0.431082
0.425178
0.451209
0.451525
0.451818
0.45193
0.451911
0.451789
0.451566
0.451238
0.450796
0.450225
0.449504
0.448603
0.447484
0.446096
0.444369
0.442205
0.439463
0.435933
0.431266
0.425442
0.454908
0.454787
0.454524
0.454302
0.454089
0.453824
0.453478
0.453042
0.452502
0.451843
0.45104
0.450064
0.448877
0.447426
0.445643
0.443429
0.440645
0.437083
0.432395
0.426526
0.455473
0.455513
0.455406
0.45522
0.454991
0.454713
0.454369
0.453946
0.453428
0.4528
0.45204
0.45112
0.450006
0.448652
0.446998
0.444966
0.442448
0.439297
0.4353
0.430433
0.451964
0.452525
0.452954
0.453078
0.453001
0.452805
0.452515
0.452133
0.451649
0.451052
0.450321
0.44943
0.448346
0.447023
0.445403
0.443404
0.440919
0.437802
0.433834
0.429023
0.453415
0.453271
0.453349
0.453269
0.453027
0.452696
0.452303
0.451843
0.451299
0.450652
0.44988
0.448953
0.447836
0.446481
0.444827
0.442793
0.440267
0.437099
0.433066
0.428206
0.453456
0.453413
0.453433
0.45332
0.453066
0.452721
0.452311
0.451833
0.45127
0.450604
0.449811
0.448862
0.447721
0.446338
0.444652
0.442578
0.440004
0.436777
0.432664
0.427727
0.453318
0.453463
0.4536
0.45357
0.453384
0.453088
0.452706
0.452238
0.451674
0.450997
0.450187
0.449214
0.448044
0.446627
0.444901
0.44278
0.44015
0.436854
0.432655
0.427632
0.453229
0.453427
0.453604
0.453593
0.453428
0.453157
0.452802
0.452358
0.451816
0.451158
0.450361
0.449399
0.448233
0.446814
0.445079
0.442941
0.440284
0.436948
0.432692
0.427611
0.453167
0.453379
0.453573
0.453574
0.45342
0.453166
0.45283
0.452408
0.451885
0.451246
0.450466
0.449517
0.448362
0.446949
0.445215
0.443072
0.440402
0.437044
0.432751
0.427631
0.453124
0.453339
0.453543
0.45355
0.453398
0.453147
0.452816
0.452399
0.451884
0.451251
0.450479
0.449537
0.448387
0.446979
0.445247
0.443102
0.440426
0.437055
0.432739
0.427595
0.453097
0.453313
0.453521
0.453532
0.453381
0.45313
0.4528
0.452385
0.451872
0.451242
0.450473
0.449534
0.448386
0.44698
0.445249
0.443103
0.440422
0.437042
0.432713
0.427554
0.453083
0.453301
0.45351
0.453522
0.453372
0.453121
0.45279
0.452375
0.451862
0.451233
0.450464
0.449525
0.448378
0.446972
0.445239
0.443092
0.440409
0.437025
0.432688
0.427522
0.453083
0.453301
0.45351
0.453522
0.453372
0.45312
0.45279
0.452375
0.451862
0.451233
0.450464
0.449525
0.448378
0.446972
0.445239
0.443092
0.440409
0.437025
0.432688
0.427522
0.453097
0.453313
0.453521
0.453532
0.453381
0.45313
0.452799
0.452385
0.451872
0.451242
0.450472
0.449533
0.448386
0.44698
0.445248
0.443103
0.440422
0.437042
0.432713
0.427554
0.453124
0.453339
0.453543
0.45355
0.453398
0.453147
0.452816
0.452399
0.451884
0.451251
0.450479
0.449537
0.448387
0.446979
0.445247
0.443102
0.440426
0.437054
0.432739
0.427595
0.453167
0.453378
0.453573
0.453574
0.45342
0.453166
0.45283
0.452407
0.451885
0.451245
0.450466
0.449517
0.448361
0.446949
0.445215
0.443072
0.440402
0.437044
0.432751
0.42763
0.453229
0.453427
0.453604
0.453593
0.453427
0.453157
0.452802
0.452358
0.451816
0.451158
0.450361
0.449399
0.448233
0.446814
0.445079
0.442941
0.440283
0.436948
0.432692
0.42761
0.453318
0.453463
0.4536
0.45357
0.453383
0.453088
0.452706
0.452238
0.451674
0.450997
0.450186
0.449214
0.448044
0.446627
0.4449
0.442779
0.440149
0.436854
0.432655
0.427632
0.453456
0.453413
0.453432
0.45332
0.453066
0.452721
0.452311
0.451832
0.45127
0.450603
0.449811
0.448862
0.447721
0.446338
0.444651
0.442578
0.440004
0.436776
0.432664
0.427726
0.453415
0.453271
0.453349
0.453269
0.453027
0.452696
0.452303
0.451843
0.451299
0.450652
0.44988
0.448953
0.447836
0.446481
0.444827
0.442792
0.440266
0.437099
0.433066
0.428205
0.451964
0.452525
0.452954
0.453078
0.453001
0.452805
0.452515
0.452133
0.451649
0.451051
0.45032
0.44943
0.448346
0.447023
0.445402
0.443404
0.440919
0.437801
0.433833
0.429022
0.455473
0.455513
0.455406
0.455219
0.454991
0.454713
0.454369
0.453946
0.453428
0.4528
0.45204
0.45112
0.450005
0.448651
0.446998
0.444965
0.442447
0.439296
0.435299
0.430432
0.455707
0.455612
0.455422
0.455223
0.455018
0.454785
0.4545
0.454147
0.453708
0.453168
0.452508
0.451704
0.450726
0.449537
0.448089
0.446322
0.444162
0.441515
0.438263
0.434405
0.452163
0.452708
0.453115
0.453267
0.45325
0.453124
0.452908
0.452601
0.452194
0.451678
0.451036
0.450247
0.449283
0.448109
0.446677
0.44493
0.442792
0.440169
0.436944
0.433133
0.453699
0.453658
0.453684
0.453586
0.453352
0.453035
0.452662
0.452228
0.451722
0.451125
0.450418
0.449576
0.448568
0.447356
0.445891
0.444112
0.441941
0.439282
0.436011
0.432168
0.454338
0.453719
0.453377
0.453143
0.452876
0.452557
0.452188
0.451763
0.451265
0.450674
0.44997
0.449126
0.448112
0.446888
0.445406
0.443602
0.441397
0.438694
0.435364
0.431463
0.454227
0.453903
0.453671
0.453485
0.453247
0.452934
0.452552
0.452099
0.451567
0.450938
0.450193
0.449307
0.448249
0.446979
0.445447
0.443589
0.441324
0.438551
0.435138
0.431154
0.454069
0.453923
0.453793
0.453646
0.453434
0.453146
0.452783
0.452343
0.451817
0.451189
0.450439
0.449544
0.448471
0.44718
0.445621
0.443728
0.44142
0.438593
0.435111
0.431058
0.453977
0.453881
0.453796
0.453672
0.453481
0.45322
0.452887
0.452475
0.451974
0.451366
0.450632
0.449746
0.448678
0.447387
0.44582
0.443913
0.441581
0.438721
0.435191
0.431091
0.453919
0.453836
0.45377
0.453659
0.453475
0.453222
0.452901
0.452504
0.452017
0.451423
0.450702
0.449828
0.448769
0.447483
0.44592
0.44401
0.441671
0.438795
0.43524
0.431113
0.453884
0.453805
0.453749
0.453643
0.453461
0.45321
0.452892
0.4525
0.45202
0.451433
0.450719
0.449853
0.4488
0.44752
0.44596
0.444052
0.441711
0.438828
0.435261
0.431121
0.453867
0.45379
0.453737
0.453634
0.453453
0.453201
0.452884
0.452493
0.452015
0.45143
0.450719
0.449854
0.448804
0.447527
0.445968
0.444061
0.441719
0.438834
0.435261
0.431116
0.453867
0.45379
0.453737
0.453634
0.453453
0.453201
0.452884
0.452493
0.452015
0.45143
0.450719
0.449854
0.448804
0.447527
0.445968
0.444061
0.441719
0.438834
0.435261
0.431116
0.453884
0.453805
0.453749
0.453643
0.453461
0.45321
0.452892
0.4525
0.45202
0.451433
0.450719
0.449853
0.4488
0.44752
0.44596
0.444052
0.44171
0.438828
0.435261
0.431121
0.453919
0.453836
0.45377
0.453658
0.453475
0.453222
0.452901
0.452504
0.452017
0.451423
0.450701
0.449828
0.448769
0.447483
0.44592
0.44401
0.44167
0.438795
0.43524
0.431113
0.453977
0.453881
0.453796
0.453672
0.453481
0.45322
0.452887
0.452475
0.451974
0.451366
0.450632
0.449746
0.448678
0.447386
0.44582
0.443913
0.441581
0.438721
0.435191
0.43109
0.454069
0.453923
0.453793
0.453646
0.453434
0.453146
0.452783
0.452343
0.451817
0.451189
0.450439
0.449544
0.44847
0.44718
0.445621
0.443728
0.44142
0.438593
0.43511
0.431057
0.454227
0.453903
0.453671
0.453485
0.453247
0.452934
0.452552
0.452099
0.451567
0.450938
0.450193
0.449307
0.448249
0.446979
0.445447
0.443589
0.441324
0.438551
0.435137
0.431154
0.454338
0.453719
0.453377
0.453143
0.452876
0.452557
0.452188
0.451763
0.451265
0.450674
0.44997
0.449126
0.448112
0.446888
0.445406
0.443602
0.441397
0.438694
0.435363
0.431462
0.453699
0.453658
0.453684
0.453586
0.453352
0.453035
0.452662
0.452228
0.451722
0.451125
0.450418
0.449576
0.448568
0.447355
0.445891
0.444111
0.44194
0.439281
0.43601
0.432167
0.452163
0.452708
0.453115
0.453267
0.45325
0.453124
0.452908
0.4526
0.452194
0.451677
0.451035
0.450246
0.449283
0.448108
0.446677
0.44493
0.442792
0.440169
0.436943
0.433132
0.455707
0.455611
0.455422
0.455223
0.455018
0.454784
0.4545
0.454146
0.453708
0.453168
0.452508
0.451704
0.450726
0.449536
0.448088
0.446322
0.444162
0.441514
0.438262
0.434404
0.455944
0.455841
0.45568
0.455539
0.455397
0.455223
0.454998
0.454706
0.454336
0.453875
0.453308
0.452615
0.451772
0.450753
0.449519
0.448031
0.44624
0.444091
0.441529
0.438562
0.452378
0.45296
0.45342
0.453646
0.453712
0.453667
0.453529
0.453299
0.452973
0.452543
0.451999
0.451323
0.450495
0.449489
0.44827
0.446798
0.445025
0.442896
0.440355
0.437419
0.453853
0.453998
0.454148
0.454144
0.453997
0.453756
0.453446
0.45307
0.452621
0.452089
0.451458
0.45071
0.449822
0.448765
0.447502
0.445992
0.444183
0.44202
0.43944
0.436473
0.454532
0.454207
0.453982
0.453811
0.453595
0.453313
0.452971
0.45257
0.452102
0.451554
0.450909
0.450148
0.449246
0.448173
0.446893
0.445361
0.443526
0.441328
0.438704
0.435691
0.454885
0.454311
0.453951
0.453746
0.453542
0.453277
0.452942
0.452538
0.452061
0.451498
0.450833
0.450049
0.449119
0.448015
0.446699
0.445127
0.443245
0.440994
0.438305
0.435225
0.45474
0.454436
0.454176
0.453986
0.453779
0.453505
0.453159
0.452741
0.452247
0.451666
0.450982
0.450176
0.449222
0.44809
0.446742
0.445133
0.443207
0.440903
0.438149
0.435003
0.454585
0.454437
0.454276
0.454127
0.453945
0.453697
0.453374
0.452973
0.452491
0.451915
0.451231
0.45042
0.449456
0.448308
0.446939
0.445302
0.443342
0.440994
0.438187
0.434985
0.4545
0.454396
0.454278
0.454151
0.453984
0.453754
0.453452
0.453073
0.452609
0.452049
0.451378
0.450576
0.449617
0.448471
0.447098
0.445452
0.443475
0.441104
0.438264
0.435028
0.454451
0.454359
0.45426
0.454145
0.453983
0.45376
0.453467
0.4531
0.452649
0.452102
0.451442
0.450651
0.449701
0.448562
0.447193
0.445546
0.443566
0.441185
0.438329
0.435076
0.454429
0.45434
0.454249
0.454138
0.453978
0.453755
0.453465
0.453102
0.452656
0.452114
0.45146
0.450674
0.449729
0.448594
0.447229
0.445585
0.443604
0.441221
0.438359
0.4351
0.454429
0.45434
0.454249
0.454138
0.453978
0.453755
0.453465
0.453102
0.452656
0.452114
0.45146
0.450674
0.449729
0.448594
0.447229
0.445585
0.443604
0.441221
0.438359
0.4351
0.454451
0.454359
0.45426
0.454145
0.453983
0.45376
0.453467
0.4531
0.452649
0.452102
0.451442
0.450651
0.449701
0.448561
0.447193
0.445546
0.443565
0.441185
0.438329
0.435076
0.4545
0.454396
0.454278
0.454151
0.453984
0.453754
0.453452
0.453073
0.452609
0.452049
0.451378
0.450576
0.449617
0.448471
0.447098
0.445452
0.443475
0.441104
0.438263
0.435028
0.454585
0.454437
0.454276
0.454127
0.453945
0.453697
0.453373
0.452973
0.452491
0.451915
0.451231
0.450419
0.449455
0.448308
0.446939
0.445302
0.443341
0.440994
0.438186
0.434985
0.454739
0.454436
0.454176
0.453986
0.453779
0.453505
0.453158
0.45274
0.452247
0.451666
0.450982
0.450175
0.449222
0.44809
0.446742
0.445132
0.443206
0.440902
0.438149
0.435003
0.454885
0.45431
0.453951
0.453746
0.453542
0.453277
0.452941
0.452538
0.452061
0.451498
0.450833
0.450048
0.449119
0.448015
0.446699
0.445127
0.443245
0.440994
0.438305
0.435224
0.454532
0.454207
0.453982
0.45381
0.453595
0.453313
0.452971
0.45257
0.452102
0.451554
0.450909
0.450148
0.449246
0.448172
0.446892
0.445361
0.443525
0.441328
0.438704
0.435691
0.453853
0.453998
0.454148
0.454143
0.453997
0.453756
0.453446
0.45307
0.452621
0.452088
0.451458
0.45071
0.449822
0.448765
0.447502
0.445992
0.444183
0.442019
0.439439
0.436472
0.452378
0.45296
0.45342
0.453646
0.453712
0.453667
0.453529
0.453299
0.452973
0.452543
0.451998
0.451323
0.450495
0.449489
0.44827
0.446798
0.445025
0.442896
0.440354
0.437418
0.455944
0.455841
0.45568
0.455539
0.455397
0.455223
0.454997
0.454706
0.454336
0.453875
0.453308
0.452614
0.451772
0.450752
0.449519
0.448031
0.446239
0.44409
0.441528
0.438561
0.456221
0.45612
0.455965
0.455838
0.455715
0.455567
0.455376
0.455133
0.454826
0.454446
0.453979
0.453411
0.452723
0.451894
0.450901
0.449715
0.448308
0.446652
0.444727
0.442549
0.452645
0.453237
0.453714
0.453961
0.454056
0.454051
0.453965
0.453799
0.453551
0.453216
0.452783
0.452242
0.451577
0.450767
0.449791
0.448622
0.44723
0.44559
0.443681
0.441519
0.454097
0.454296
0.454493
0.454522
0.454418
0.454233
0.453989
0.453688
0.453325
0.452891
0.452374
0.45176
0.451033
0.450169
0.449145
0.447933
0.446503
0.444826
0.442877
0.440677
0.454718
0.45457
0.454452
0.454334
0.454168
0.453943
0.453663
0.453329
0.452936
0.452474
0.451931
0.451292
0.450539
0.44965
0.448601
0.447362
0.445902
0.44419
0.442199
0.439953
0.455096
0.454792
0.454539
0.454366
0.454185
0.453947
0.453646
0.453287
0.452865
0.452374
0.451801
0.451131
0.450346
0.449424
0.448341
0.447064
0.445563
0.443805
0.44176
0.439456
0.455343
0.454845
0.454482
0.454255
0.454056
0.453819
0.453528
0.453178
0.452766
0.452282
0.451712
0.451041
0.45025
0.449318
0.448218
0.446918
0.445387
0.443591
0.441498
0.439141
0.455198
0.454935
0.454671
0.454464
0.454264
0.454025
0.453729
0.453374
0.452954
0.452459
0.451877
0.451192
0.450385
0.449432
0.448308
0.446981
0.445416
0.443579
0.441436
0.439028
0.455057
0.45493
0.454758
0.454589
0.454408
0.454186
0.453907
0.453564
0.453151
0.45266
0.452077
0.451388
0.450573
0.44961
0.44847
0.447123
0.445532
0.443663
0.441481
0.439032
0.454985
0.454898
0.454765
0.454616
0.454448
0.45424
0.453979
0.453654
0.453258
0.45278
0.452209
0.451528
0.450718
0.449755
0.448613
0.447258
0.445655
0.443768
0.441562
0.439086
0.454953
0.454876
0.454757
0.454617
0.454453
0.454251
0.453997
0.453682
0.453295
0.452827
0.452263
0.451589
0.450785
0.449826
0.448685
0.44733
0.445723
0.44383
0.441613
0.439127
0.454953
0.454876
0.454757
0.454617
0.454453
0.454251
0.453997
0.453682
0.453295
0.452827
0.452263
0.451589
0.450785
0.449826
0.448685
0.44733
0.445723
0.44383
0.441613
0.439127
0.454985
0.454898
0.454765
0.454616
0.454448
0.45424
0.453979
0.453654
0.453258
0.45278
0.452209
0.451528
0.450718
0.449755
0.448613
0.447258
0.445655
0.443768
0.441561
0.439086
0.455057
0.45493
0.454758
0.454589
0.454408
0.454186
0.453907
0.453564
0.453151
0.45266
0.452077
0.451388
0.450573
0.44961
0.44847
0.447122
0.445532
0.443663
0.441481
0.439032
0.455198
0.454935
0.454671
0.454464
0.454264
0.454025
0.453729
0.453374
0.452953
0.452459
0.451877
0.451192
0.450384
0.449432
0.448308
0.44698
0.445415
0.443578
0.441436
0.439028
0.455343
0.454845
0.454482
0.454255
0.454056
0.453819
0.453528
0.453178
0.452766
0.452281
0.451712
0.451041
0.45025
0.449318
0.448217
0.446918
0.445387
0.44359
0.441497
0.43914
0.455096
0.454792
0.454539
0.454366
0.454185
0.453947
0.453646
0.453286
0.452865
0.452374
0.451801
0.451131
0.450346
0.449424
0.44834
0.447064
0.445563
0.443805
0.441759
0.439455
0.454718
0.45457
0.454452
0.454334
0.454168
0.453943
0.453663
0.453329
0.452936
0.452474
0.451931
0.451292
0.450539
0.44965
0.448601
0.447361
0.445901
0.444189
0.442198
0.439952
0.454096
0.454296
0.454492
0.454522
0.454418
0.454233
0.453989
0.453688
0.453325
0.45289
0.452374
0.45176
0.451032
0.450169
0.449145
0.447933
0.446503
0.444825
0.442876
0.440676
0.452645
0.453237
0.453714
0.453961
0.454056
0.454051
0.453965
0.453799
0.453551
0.453215
0.452783
0.452242
0.451577
0.450767
0.449791
0.448621
0.44723
0.44559
0.44368
0.441518
0.456221
0.45612
0.455965
0.455838
0.455715
0.455567
0.455376
0.455133
0.454826
0.454446
0.453979
0.453411
0.452722
0.451894
0.4509
0.449714
0.448307
0.446651
0.444727
0.442548
0.456541
0.456443
0.456299
0.456192
0.4561
0.455992
0.455853
0.455672
0.455441
0.455152
0.454796
0.45436
0.453833
0.453201
0.452449
0.45156
0.450519
0.449317
0.447953
0.446447
0.452958
0.453556
0.454048
0.454318
0.454444
0.454482
0.45445
0.454352
0.454185
0.453946
0.45363
0.453227
0.452727
0.452118
0.451386
0.450514
0.44949
0.448303
0.446952
0.445455
0.454402
0.454616
0.454839
0.454897
0.454829
0.454694
0.454513
0.454288
0.454014
0.453683
0.453288
0.452818
0.452259
0.451599
0.450821
0.449909
0.448847
0.447623
0.446235
0.444697
0.455001
0.454904
0.454838
0.454759
0.454639
0.454474
0.454268
0.454018
0.45372
0.453365
0.452945
0.452449
0.451865
0.451178
0.450372
0.449431
0.448337
0.447079
0.445649
0.444065
0.455327
0.455177
0.45503
0.454914
0.454783
0.454606
0.454376
0.454093
0.453756
0.453362
0.452902
0.452365
0.451741
0.451014
0.450168
0.449186
0.44805
0.446745
0.445264
0.443623
0.455595
0.455332
0.455075
0.454887
0.454715
0.454514
0.454269
0.453977
0.453634
0.453235
0.45277
0.452228
0.451596
0.450859
0.449999
0.448998
0.447838
0.446503
0.444983
0.443298
0.455797
0.455359
0.455014
0.454784
0.454598
0.454401
0.454169
0.453892
0.453564
0.453176
0.452719
0.452181
0.45155
0.450808
0.44994
0.448925
0.447744
0.446382
0.444829
0.443105
0.455664
0.455434
0.45518
0.454969
0.454779
0.454574
0.454334
0.454048
0.453709
0.45331
0.452841
0.452291
0.451645
0.450888
0.450001
0.448965
0.44776
0.446368
0.444779
0.443018
0.455544
0.455436
0.455262
0.455086
0.454912
0.454722
0.454494
0.454217
0.453884
0.453487
0.453016
0.45246
0.451805
0.451036
0.450134
0.449079
0.447851
0.446432
0.444812
0.443017
0.455496
0.45542
0.455277
0.455115
0.454952
0.454773
0.454559
0.454295
0.453972
0.453582
0.453116
0.452563
0.451908
0.451135
0.450227
0.449164
0.447924
0.446491
0.444853
0.44304
0.455496
0.45542
0.455277
0.455115
0.454952
0.454773
0.454559
0.454295
0.453972
0.453582
0.453116
0.452563
0.451908
0.451135
0.450227
0.449164
0.447924
0.446491
0.444853
0.44304
0.455544
0.455436
0.455262
0.455086
0.454912
0.454722
0.454494
0.454217
0.453884
0.453486
0.453015
0.45246
0.451805
0.451036
0.450134
0.449079
0.447851
0.446432
0.444812
0.443017
0.455664
0.455434
0.455179
0.454969
0.454779
0.454574
0.454334
0.454048
0.453709
0.45331
0.452841
0.452291
0.451645
0.450888
0.450001
0.448965
0.44776
0.446368
0.444779
0.443018
0.455796
0.455359
0.455014
0.454783
0.454597
0.454401
0.454169
0.453892
0.453564
0.453176
0.452719
0.452181
0.45155
0.450808
0.449939
0.448924
0.447744
0.446382
0.444829
0.443105
0.455595
0.455332
0.455075
0.454887
0.454715
0.454514
0.454269
0.453977
0.453634
0.453235
0.45277
0.452228
0.451596
0.450859
0.449999
0.448998
0.447838
0.446502
0.444983
0.443298
0.455327
0.455177
0.45503
0.454914
0.454783
0.454606
0.454376
0.454093
0.453756
0.453362
0.452902
0.452365
0.451741
0.451014
0.450168
0.449186
0.44805
0.446744
0.445263
0.443623
0.455001
0.454904
0.454838
0.454759
0.454638
0.454474
0.454268
0.454018
0.45372
0.453365
0.452945
0.452449
0.451864
0.451178
0.450372
0.449431
0.448337
0.447078
0.445649
0.444065
0.454402
0.454616
0.454839
0.454897
0.454829
0.454694
0.454513
0.454288
0.454014
0.453683
0.453288
0.452817
0.452259
0.451599
0.450821
0.449909
0.448847
0.447623
0.446234
0.444696
0.452958
0.453556
0.454048
0.454317
0.454444
0.454482
0.45445
0.454352
0.454185
0.453946
0.45363
0.453227
0.452727
0.452118
0.451385
0.450514
0.44949
0.448303
0.446952
0.445454
0.456541
0.456443
0.456299
0.456192
0.4561
0.455992
0.455852
0.455671
0.455441
0.455152
0.454795
0.45436
0.453833
0.453201
0.452448
0.451559
0.450519
0.449316
0.447953
0.446446
0.456897
0.456803
0.456671
0.456585
0.456521
0.456451
0.456359
0.456238
0.456081
0.455882
0.455636
0.455334
0.45497
0.454535
0.454021
0.453421
0.452729
0.451945
0.451078
0.450149
0.45331
0.453913
0.454418
0.454709
0.454864
0.45494
0.454957
0.45492
0.45483
0.454684
0.45448
0.454214
0.45388
0.45347
0.452977
0.452395
0.451718
0.450947
0.450091
0.449166
0.454751
0.454972
0.455213
0.455294
0.455257
0.455161
0.455033
0.454874
0.45468
0.454448
0.45417
0.453841
0.453453
0.452996
0.452461
0.451841
0.451129
0.450324
0.449432
0.448468
0.455342
0.45526
0.455222
0.455173
0.455086
0.454967
0.45482
0.454644
0.454434
0.454184
0.453887
0.453538
0.453128
0.452647
0.452088
0.451441
0.450699
0.44986
0.44893
0.447922
0.455648
0.455544
0.455448
0.455371
0.455282
0.45516
0.454998
0.454796
0.454553
0.454267
0.453932
0.453543
0.453092
0.452571
0.45197
0.451281
0.450496
0.449611
0.448631
0.447566
0.45587
0.455743
0.455585
0.455452
0.455328
0.455182
0.455003
0.454786
0.45453
0.454231
0.453884
0.453481
0.453016
0.452479
0.45186
0.451149
0.450338
0.449423
0.448407
0.447299
0.456092
0.455861
0.455615
0.455424
0.455264
0.455101
0.454914
0.454695
0.454439
0.45414
0.453794
0.453391
0.452924
0.452382
0.451756
0.451035
0.450209
0.449274
0.448231
0.447092
0.456276
0.455883
0.455557
0.455327
0.455151
0.454986
0.454805
0.454595
0.454347
0.454056
0.453714
0.453314
0.452847
0.452303
0.451671
0.45094
0.450101
0.449148
0.448083
0.446918
0.456169
0.45596
0.455711
0.455497
0.455315
0.455141
0.454949
0.454726
0.454465
0.454159
0.453802
0.453386
0.452902
0.45234
0.451688
0.450937
0.450075
0.449097
0.448005
0.446812
0.456084
0.455978
0.455791
0.455601
0.455431
0.455264
0.455077
0.454855
0.45459
0.454277
0.453911
0.453483
0.452986
0.452408
0.451741
0.450972
0.450093
0.449096
0.447983
0.446769
0.456084
0.455978
0.455791
0.455601
0.455431
0.455264
0.455077
0.454855
0.45459
0.454277
0.453911
0.453483
0.452986
0.452408
0.451741
0.450972
0.450092
0.449096
0.447983
0.446769
0.456169
0.45596
0.455711
0.455496
0.455315
0.455141
0.454949
0.454726
0.454465
0.454159
0.453802
0.453386
0.452902
0.45234
0.451688
0.450937
0.450075
0.449097
0.448005
0.446811
0.456276
0.455883
0.455557
0.455327
0.455151
0.454986
0.454805
0.454595
0.454347
0.454056
0.453714
0.453314
0.452847
0.452303
0.45167
0.45094
0.450101
0.449148
0.448082
0.446917
0.456092
0.455861
0.455615
0.455424
0.455264
0.455101
0.454914
0.454695
0.454438
0.45414
0.453794
0.453391
0.452924
0.452382
0.451756
0.451035
0.450209
0.449274
0.448231
0.447092
0.45587
0.455743
0.455585
0.455452
0.455327
0.455182
0.455003
0.454786
0.45453
0.454231
0.453884
0.453481
0.453016
0.452479
0.451859
0.451149
0.450338
0.449423
0.448406
0.447299
0.455648
0.455544
0.455448
0.455371
0.455282
0.45516
0.454998
0.454796
0.454553
0.454267
0.453932
0.453543
0.453092
0.452571
0.45197
0.451281
0.450496
0.449611
0.44863
0.447565
0.455342
0.455259
0.455222
0.455172
0.455086
0.454967
0.45482
0.454644
0.454434
0.454184
0.453887
0.453538
0.453127
0.452647
0.452088
0.451441
0.450699
0.44986
0.44893
0.447921
0.454751
0.454972
0.455212
0.455294
0.455257
0.455161
0.455033
0.454874
0.45468
0.454447
0.45417
0.453841
0.453452
0.452995
0.452461
0.451841
0.451129
0.450323
0.449431
0.448467
0.45331
0.453912
0.454417
0.454709
0.454864
0.45494
0.454957
0.45492
0.45483
0.454684
0.45448
0.454214
0.453879
0.453469
0.452977
0.452395
0.451718
0.450947
0.45009
0.449165
0.456897
0.456803
0.456671
0.456585
0.456521
0.456451
0.456359
0.456238
0.456081
0.455882
0.455636
0.455334
0.45497
0.454535
0.454021
0.45342
0.452728
0.451944
0.451078
0.450148
0.457282
0.457192
0.457071
0.457006
0.456972
0.456941
0.4569
0.456841
0.456762
0.456658
0.456525
0.456361
0.45616
0.455921
0.455639
0.455314
0.454945
0.454539
0.454108
0.453672
0.453692
0.454298
0.454815
0.455128
0.455312
0.455428
0.455495
0.455521
0.455508
0.455457
0.455367
0.455237
0.455067
0.454852
0.454591
0.454282
0.453928
0.453532
0.453108
0.452673
0.455133
0.455358
0.455612
0.455716
0.455708
0.455651
0.455573
0.455478
0.455364
0.455228
0.455066
0.454876
0.454654
0.454394
0.454094
0.45375
0.453362
0.452934
0.452477
0.452005
0.455721
0.455644
0.455626
0.455601
0.455544
0.455465
0.455372
0.455263
0.455136
0.454986
0.45481
0.454604
0.454363
0.454084
0.453762
0.453394
0.45298
0.452522
0.45203
0.451517
0.45602
0.455929
0.455861
0.455814
0.455759
0.455681
0.455578
0.45545
0.455297
0.455116
0.454906
0.454664
0.454386
0.454068
0.453707
0.453299
0.452843
0.452341