/*--------------------------------*- C++ -*----------------------------------*\
  =========                 |
  \\      /  F ield         | OpenFOAM: The Open Source CFD Toolbox
   \\    /   O peration     | Website:  https://openfoam.org
    \\  /    A nd           | Version:  10
     \\/     M anipulation  |
\*---------------------------------------------------------------------------*/
FoamFile
{
    format      ascii;
    class       volVectorField;
    location    "500";
    object      U;
}
// * * * * * * * * * * * * * * * * * * * * * * * * * * * * * * * * * * * * * //

dimensions      [0 1 -1 0 0 0 0];

internalField   nonuniform List<vector> 
112000
(
(347.908 -14.0428 13.9477)
(350.766 -11.0457 10.8469)
(352.321 -9.27573 8.97116)
(352.849 -8.07551 7.66397)
(353.103 -7.17382 6.65198)
(353.472 -6.47736 5.83925)
(354.088 -5.93996 5.1757)
(355.025 -5.52923 4.6238)
(356.363 -5.22401 4.15598)
(358.202 -5.01379 3.75321)
(360.656 -4.89697 3.40226)
(363.864 -4.87937 3.09335)
(368.004 -4.97474 2.8188)
(373.308 -5.20785 2.57224)
(380.097 -5.62136 2.34787)
(388.828 -6.29031 2.13986)
(400.2 -7.35536 1.94126)
(415.384 -9.10414 1.74216)
(436.18 -12.1938 1.5164)
(472.188 -18.2648 1.33178)
(349.343 -15.2845 -3.55923)
(351.512 -11.5936 -5.40074)
(353.411 -9.22824 -5.86297)
(354.999 -7.63651 -5.82808)
(356.527 -6.48715 -5.65061)
(358.191 -5.63481 -5.41692)
(360.088 -5.0069 -5.15242)
(362.281 -4.55684 -4.87683)
(364.841 -4.25382 -4.60471)
(367.857 -4.07968 -4.34389)
(371.435 -4.02635 -4.09782)
(375.709 -4.09456 -3.86824)
(380.849 -4.29414 -3.65658)
(387.079 -4.64664 -3.46472)
(394.709 -5.19159 -3.29558)
(404.185 -6.0003 -3.15399)
(416.184 -7.20752 -3.04803)
(431.852 -9.08865 -2.99175)
(452.927 -12.2837 -3.01551)
(489.077 -18.3609 -3.10576)
(349.084 -15.2391 0.484851)
(351.421 -11.393 0.946634)
(353.787 -8.85175 1.36527)
(356.119 -7.13228 1.65471)
(358.437 -5.90453 1.79454)
(360.828 -5.00419 1.82569)
(363.379 -4.3478 1.78996)
(366.166 -3.8843 1.71126)
(369.268 -3.57986 1.60185)
(372.777 -3.41353 1.4691)
(376.803 -3.37492 1.31773)
(381.483 -3.46285 1.14986)
(386.988 -3.68568 0.964978)
(393.545 -4.0637 0.759891)
(401.462 -4.63516 0.52834)
(411.185 -5.4698 0.260152)
(423.388 -6.70021 -0.0604557)
(439.217 -8.59795 -0.458111)
(460.385 -11.7997 -0.976504)
(496.671 -17.8696 -1.63602)
(349.386 -15.2065 -0.0696964)
(352.167 -11.413 -0.399246)
(354.819 -8.93126 -0.824929)
(357.319 -7.26186 -1.21187)
(359.768 -6.08425 -1.52694)
(362.284 -5.23376 -1.77451)
(364.966 -4.62332 -1.96443)
(367.897 -4.2001 -2.10821)
(371.157 -3.92973 -2.21828)
(374.836 -3.79105 -2.30645)
(379.041 -3.77356 -2.3833)
(383.905 -3.87605 -2.45865)
(389.599 -4.10683 -2.54235)
(396.346 -4.48605 -2.64518)
(404.456 -5.05164 -2.77982)
(414.373 -5.87281 -2.96209)
(426.776 -7.08126 -3.21296)
(442.819 -8.94699 -3.5614)
(464.214 -12.1054 -4.05151)
(500.911 -18.1214 -4.71034)
(349.386 -15.1666 -0.11127)
(352.146 -11.3663 -0.249274)
(354.716 -8.87298 -0.355177)
(357.129 -7.16985 -0.402798)
(359.538 -5.94691 -0.409265)
(362.064 -5.04943 -0.402039)
(364.794 -4.39402 -0.39873)
(367.8 -3.92913 -0.408061)
(371.155 -3.6212 -0.435073)
(374.943 -3.44946 -0.483653)
(379.268 -3.40333 -0.557392)
(384.261 -3.48112 -0.660276)
(390.093 -3.6904 -0.797495)
(396.989 -4.0504 -0.976278)
(405.259 -4.59798 -1.20681)
(415.353 -5.4012 -1.50339)
(427.958 -6.59049 -1.88613)
(444.237 -8.43434 -2.38333)
(465.911 -11.5667 -3.03638)
(503.039 -17.5522 -3.87431)
(349.385 -15.1516 -0.1087)
(352.144 -11.349 -0.229542)
(354.719 -8.86201 -0.347039)
(357.148 -7.16457 -0.460265)
(359.584 -5.94738 -0.572545)
(362.147 -5.05876 -0.687188)
(364.916 -4.4156 -0.804535)
(367.962 -3.96492 -0.923648)
(371.359 -3.67169 -1.04464)
(375.193 -3.514 -1.16943)
(379.571 -3.4803 -1.30154)
(384.624 -3.56813 -1.44596)
(390.525 -3.78435 -1.60934)
(397.5 -4.14757 -1.80034)
(405.864 -4.69413 -2.03028)
(416.069 -5.49149 -2.31396)
(428.81 -6.66944 -2.67083)
(445.259 -8.49562 -3.12661)
(467.144 -11.603 -3.71607)
(504.635 -17.5582 -4.46654)
(349.382 -15.1444 -0.0898144)
(352.132 -11.3381 -0.185995)
(354.696 -8.85194 -0.273724)
(357.111 -7.15449 -0.35114)
(359.534 -5.93355 -0.419151)
(362.085 -5.03801 -0.480342)
(364.847 -4.38575 -0.53768)
(367.891 -3.92431 -0.59435)
(371.293 -3.61899 -0.654067)
(375.141 -3.44826 -0.721135)
(379.541 -3.40096 -0.80035)
(384.625 -3.47488 -0.897062)
(390.568 -3.67705 -1.01748)
(397.598 -4.0261 -1.16914)
(406.031 -4.55822 -1.36151)
(416.324 -5.34064 -1.60675)
(429.175 -6.50275 -1.92053)
(445.765 -8.31154 -2.3232)
(467.826 -11.3989 -2.84114)
(505.587 -17.3334 -3.4977)
(349.38 -15.1406 -0.06565)
(352.123 -11.3318 -0.135674)
(354.678 -8.84605 -0.199081)
(357.087 -7.14991 -0.255915)
(359.508 -5.9294 -0.308957)
(362.061 -5.03346 -0.361494)
(364.829 -4.38082 -0.415987)
(367.883 -3.91944 -0.474204)
(371.297 -3.61467 -0.53784)
(375.161 -3.44486 -0.60891)
(379.58 -3.39864 -0.689909)
(384.69 -3.47357 -0.783957)
(390.663 -3.67639 -0.895045)
(397.731 -4.02542 -1.02835)
(406.212 -4.55654 -1.19064)
(416.566 -5.3366 -1.39069)
(429.494 -6.49461 -1.63978)
(446.183 -8.29698 -1.95235)
(468.369 -11.3748 -2.34642)
(506.33 -17.2993 -2.84129)
(349.379 -15.1387 -0.0397611)
(352.118 -11.3285 -0.082214)
(354.666 -8.84276 -0.120615)
(357.071 -7.14742 -0.15492)
(359.489 -5.92723 -0.186794)
(362.043 -5.03077 -0.218061)
(364.811 -4.37693 -0.249888)
(367.866 -3.91388 -0.283069)
(371.284 -3.60698 -0.318559)
(375.152 -3.43453 -0.35774)
(379.58 -3.38514 -0.40244)
(384.701 -3.45637 -0.454951)
(390.69 -3.65497 -0.51811)
(397.78 -3.99927 -0.595458)
(406.291 -4.52512 -0.691449)
(416.683 -5.29931 -0.811683)
(429.662 -6.45073 -0.963181)
(446.415 -8.24548 -1.15471)
(468.685 -11.314 -1.39653)
(506.769 -17.2297 -1.70275)
(349.378 -15.1379 -0.0133123)
(352.115 -11.3271 -0.0275459)
(354.661 -8.84135 -0.0404391)
(357.063 -7.14638 -0.0519625)
(359.481 -5.92645 -0.0627)
(362.034 -5.0299 -0.0733365)
(364.804 -4.37573 -0.0843565)
(367.861 -3.91226 -0.096124)
(371.281 -3.60492 -0.109054)
(375.154 -3.43202 -0.123684)
(379.586 -3.38218 -0.140668)
(384.715 -3.45295 -0.160769)
(390.714 -3.65103 -0.184899)
(397.816 -3.99471 -0.214177)
(406.342 -4.51977 -0.250006)
(416.754 -5.29291 -0.294159)
(429.758 -6.44286 -0.348869)
(446.543 -8.23552 -0.416939)
(468.855 -11.3008 -0.501523)
(507.002 -17.2139 -0.608326)
(349.378 -15.1379 0.0132807)
(352.115 -11.3271 0.0274786)
(354.661 -8.84135 0.0403354)
(357.063 -7.14638 0.05182)
(359.481 -5.92645 0.0625155)
(362.034 -5.0299 0.0731056)
(364.804 -4.37573 0.0840738)
(367.861 -3.91226 0.0957826)
(371.281 -3.60492 0.108646)
(375.154 -3.43202 0.123198)
(379.586 -3.38218 0.140091)
(384.715 -3.45294 0.160087)
(390.714 -3.65103 0.184095)
(397.816 -3.99471 0.213227)
(406.342 -4.51977 0.248886)
(416.754 -5.2929 0.292838)
(429.758 -6.44286 0.347311)
(446.543 -8.23551 0.415099)
(468.855 -11.3008 0.499353)
(507.002 -17.2139 0.605761)
(349.379 -15.1387 0.0397302)
(352.118 -11.3285 0.0821483)
(354.666 -8.84276 0.120513)
(357.071 -7.14742 0.154781)
(359.489 -5.92723 0.186614)
(362.043 -5.03077 0.217835)
(364.811 -4.37693 0.249611)
(367.866 -3.91388 0.282734)
(371.284 -3.60698 0.318159)
(375.152 -3.43453 0.357264)
(379.58 -3.38514 0.401876)
(384.701 -3.45637 0.454284)
(390.69 -3.65497 0.517322)
(397.78 -3.99927 0.594529)
(406.291 -4.52511 0.690352)
(416.683 -5.29931 0.81039)
(429.662 -6.45072 0.961655)
(446.415 -8.24547 1.15291)
(468.685 -11.314 1.39441)
(506.77 -17.2296 1.70024)
(349.38 -15.1406 0.0656205)
(352.123 -11.3318 0.135612)
(354.678 -8.84605 0.198984)
(357.087 -7.14991 0.255782)
(359.508 -5.9294 0.308784)
(362.061 -5.03346 0.361277)
(364.829 -4.38082 0.415722)
(367.883 -3.91944 0.473884)
(371.297 -3.61467 0.537457)
(375.161 -3.44486 0.608455)
(379.58 -3.39864 0.68937)
(384.69 -3.47357 0.783321)
(390.663 -3.67639 0.894293)
(397.731 -4.02541 1.02747)
(406.213 -4.55653 1.1896)
(416.567 -5.33659 1.38945)
(429.495 -6.4946 1.63832)
(446.184 -8.29697 1.95064)
(468.37 -11.3748 2.34439)
(506.332 -17.2992 2.8389)
(349.382 -15.1444 0.089787)
(352.132 -11.3381 0.185937)
(354.696 -8.85194 0.273634)
(357.111 -7.15449 0.351016)
(359.534 -5.93355 0.41899)
(362.085 -5.038 0.48014)
(364.847 -4.38575 0.537432)
(367.891 -3.92431 0.594051)
(371.294 -3.61899 0.653709)
(375.141 -3.44826 0.720709)
(379.541 -3.40095 0.799846)
(384.626 -3.47487 0.896466)
(390.568 -3.67705 1.01677)
(397.598 -4.02609 1.1683)
(406.031 -4.55821 1.36054)
(416.324 -5.34062 1.6056)
(429.176 -6.50273 1.91917)
(445.766 -8.31151 2.32159)
(467.827 -11.3989 2.83924)
(505.588 -17.3333 3.49546)
(349.385 -15.1516 0.108675)
(352.144 -11.349 0.22949)
(354.719 -8.862 0.346958)
(357.148 -7.16456 0.460153)
(359.584 -5.94738 0.5724)
(362.147 -5.05876 0.687006)
(364.916 -4.4156 0.804313)
(367.962 -3.96492 0.92338)
(371.359 -3.67169 1.04432)
(375.194 -3.51399 1.16905)
(379.571 -3.4803 1.30109)
(384.625 -3.56812 1.44543)
(390.525 -3.78434 1.60871)
(397.5 -4.14756 1.7996)
(405.864 -4.69412 2.02941)
(416.07 -5.49147 2.31293)
(428.811 -6.66941 2.66962)
(445.26 -8.49559 3.12518)
(467.145 -11.6029 3.71438)
(504.637 -17.5582 4.46455)
(349.386 -15.1666 0.111249)
(352.146 -11.3663 0.24923)
(354.716 -8.87297 0.355108)
(357.129 -7.16985 0.402701)
(359.538 -5.94691 0.409139)
(362.064 -5.04942 0.401879)
(364.795 -4.39402 0.398534)
(367.8 -3.92913 0.407824)
(371.155 -3.62119 0.43479)
(374.943 -3.44946 0.483316)
(379.268 -3.40332 0.556992)
(384.262 -3.48111 0.659804)
(390.094 -3.69039 0.796938)
(396.989 -4.05038 0.975622)
(405.26 -4.59796 1.20604)
(415.354 -5.40117 1.50248)
(427.959 -6.59045 1.88506)
(444.238 -8.43429 2.38207)
(465.912 -11.5666 3.03489)
(503.041 -17.5522 3.87254)
(349.386 -15.2065 0.06968)
(352.168 -11.413 0.39921)
(354.819 -8.93126 0.824875)
(357.319 -7.26186 1.21179)
(359.768 -6.08425 1.52684)
(362.284 -5.23376 1.77438)
(364.966 -4.62332 1.96428)
(367.897 -4.20009 2.10803)
(371.157 -3.92972 2.21806)
(374.836 -3.79105 2.30619)
(379.041 -3.77355 2.383)
(383.906 -3.87604 2.45829)
(389.6 -4.10682 2.54192)
(396.347 -4.48603 2.64468)
(404.457 -5.05162 2.77922)
(414.374 -5.87278 2.9614)
(426.778 -7.08123 3.21214)
(442.82 -8.94694 3.56042)
(464.216 -12.1053 4.05034)
(500.914 -18.1213 4.70896)
(349.084 -15.2391 -0.484862)
(351.421 -11.393 -0.946661)
(353.787 -8.85174 -1.36532)
(356.119 -7.13227 -1.65477)
(358.437 -5.90452 -1.79462)
(360.828 -5.00418 -1.82579)
(363.379 -4.34778 -1.79009)
(366.166 -3.88429 -1.71142)
(369.268 -3.57984 -1.60203)
(372.777 -3.41351 -1.46932)
(376.804 -3.3749 -1.31798)
(381.483 -3.46282 -1.15016)
(386.989 -3.68565 -0.96533)
(393.546 -4.06367 -0.760304)
(401.463 -4.63512 -0.528823)
(411.186 -5.46975 -0.260719)
(423.39 -6.70016 0.0597892)
(439.219 -8.59789 0.457325)
(460.387 -11.7997 0.975574)
(496.674 -17.8695 1.63492)
(349.343 -15.2845 3.55922)
(351.512 -11.5936 5.40075)
(353.411 -9.22823 5.86296)
(354.999 -7.6365 5.82806)
(356.527 -6.48714 5.65058)
(358.191 -5.63479 5.41688)
(360.088 -5.00688 5.15237)
(362.281 -4.55682 4.87676)
(364.842 -4.2538 4.60464)
(367.857 -4.07965 4.3438)
(371.436 -4.02633 4.09771)
(375.71 -4.09453 3.8681)
(380.85 -4.29411 3.65642)
(387.08 -4.64661 3.46453)
(394.711 -5.19155 3.29535)
(404.186 -6.00025 3.15371)
(416.185 -7.20746 3.0477)
(431.854 -9.08858 2.99135)
(452.93 -12.2836 3.01502)
(489.08 -18.3607 3.10515)
(347.908 -14.0428 -13.9477)
(350.766 -11.0457 -10.8468)
(352.321 -9.27571 -8.97114)
(352.849 -8.07549 -7.66396)
(353.103 -7.17379 -6.65197)
(353.472 -6.47733 -5.83924)
(354.088 -5.93992 -5.17569)
(355.025 -5.5292 -4.6238)
(356.364 -5.22397 -4.15597)
(358.202 -5.01375 -3.75321)
(360.656 -4.89693 -3.40226)
(363.865 -4.87932 -3.09335)
(368.005 -4.97469 -2.81882)
(373.309 -5.2078 -2.57226)
(380.098 -5.6213 -2.34791)
(388.829 -6.29024 -2.13991)
(400.201 -7.35528 -1.94133)
(415.386 -9.10404 -1.74225)
(436.183 -12.1937 -1.51653)
(472.191 -18.2647 -1.33196)
(349.327 3.26233 15.1787)
(351.449 4.77616 11.3681)
(353.281 4.91522 8.87892)
(354.783 4.54451 7.15614)
(356.209 4.00674 5.86509)
(357.754 3.37514 4.85613)
(359.514 2.66084 4.05156)
(361.551 1.86781 3.39893)
(363.935 0.992247 2.86023)
(366.753 0.0191429 2.40764)
(370.104 -1.07756 2.02123)
(374.112 -2.33605 1.68573)
(378.93 -3.80927 1.38905)
(384.759 -5.57275 1.12111)
(391.862 -7.73948 0.872814)
(400.596 -10.4883 0.635305)
(411.452 -14.1201 0.398949)
(425.117 -19.1761 0.151599)
(442.319 -26.7164 -0.119912)
(466.098 -38.6735 -0.36682)
(403.051 1.64722 -1.93297)
(399.661 2.49322 -3.09976)
(397.286 2.42431 -3.36709)
(395.873 1.94014 -3.23918)
(395.181 1.32252 -3.0061)
(395.081 0.652634 -2.75933)
(395.515 -0.0585785 -2.52217)
(396.463 -0.815054 -2.30547)
(397.935 -1.62778 -2.11586)
(399.966 -2.51618 -1.95608)
(402.624 -3.50904 -1.82767)
(406.007 -4.64509 -1.73143)
(410.246 -5.97681 -1.66842)
(415.524 -7.57789 -1.64085)
(422.087 -9.55736 -1.65289)
(430.275 -12.0863 -1.71169)
(440.565 -15.4519 -1.82886)
(453.633 -20.1714 -2.02346)
(470.194 -27.2844 -2.31679)
(493.22 -38.5758 -2.67624)
(405.502 0.702346 0.373645)
(404.099 1.15627 0.639208)
(403.372 1.05131 0.815517)
(403.366 0.616615 0.895758)
(403.831 0.0693351 0.887202)
(404.643 -0.513181 0.816039)
(405.785 -1.12486 0.708833)
(407.286 -1.77768 0.581546)
(409.192 -2.48812 0.441305)
(411.567 -3.27791 0.290875)
(414.495 -4.17563 0.130697)
(418.086 -5.21895 -0.0408482)
(422.482 -6.45896 -0.227492)
(427.872 -7.96751 -0.435259)
(434.507 -9.85075 -0.67296)
(442.731 -12.2754 -0.953042)
(453.023 -15.5221 -1.29289)
(466.063 -20.0985 -1.71727)
(482.555 -27.0377 -2.25855)
(505.47 -38.0756 -2.90628)
(405.906 0.699894 -0.145739)
(405.16 1.01016 -0.370764)
(405.078 0.776532 -0.643469)
(405.625 0.231216 -0.887779)
(406.585 -0.420616 -1.07288)
(407.859 -1.09299 -1.2047)
(409.434 -1.7716 -1.29775)
(411.341 -2.4672 -1.36559)
(413.627 -3.19856 -1.42012)
(416.356 -3.99008 -1.47165)
(419.613 -4.87296 -1.52911)
(423.509 -5.88714 -1.60068)
(428.188 -7.08522 -1.69476)
(433.84 -8.53964 -1.82081)
(440.719 -10.3563 -1.99028)
(449.172 -12.7007 -2.21777)
(459.683 -15.851 -2.52256)
(472.94 -20.3098 -2.93082)
(489.644 -27.1058 -3.47781)
(512.845 -37.962 -4.1695)
(405.895 0.815252 -0.141783)
(405.182 1.09837 -0.261657)
(405.183 0.82408 -0.354963)
(405.85 0.273759 -0.423323)
(406.977 -0.362971 -0.471706)
(408.458 -1.01401 -0.51133)
(410.272 -1.6686 -0.552319)
(412.434 -2.33839 -0.600893)
(414.982 -3.04315 -0.661019)
(417.974 -3.80797 -0.736153)
(421.493 -4.66402 -0.830063)
(425.648 -5.65072 -0.947322)
(430.583 -6.81966 -1.09387)
(436.49 -8.24199 -1.27763)
(443.625 -10.022 -1.50924)
(452.341 -12.3231 -1.80305)
(463.126 -15.421 -2.17834)
(476.679 -19.8147 -2.66108)
(493.706 -26.5284 -3.2858)
(517.318 -37.2786 -4.06443)
(405.884 0.864631 -0.117457)
(405.161 1.14184 -0.227534)
(405.178 0.838423 -0.324572)
(405.887 0.267329 -0.418476)
(407.071 -0.383284 -0.512436)
(408.626 -1.0488 -0.605844)
(410.524 -1.71961 -0.698347)
(412.782 -2.40523 -0.790769)
(415.437 -3.12337 -0.885158)
(418.546 -3.89778 -0.984777)
(422.192 -4.75871 -1.09403)
(426.483 -5.74474 -1.21849)
(431.566 -6.90676 -1.36508)
(437.633 -8.31517 -1.54253)
(444.942 -10.0734 -1.76194)
(453.851 -12.3438 -2.03759)
(464.854 -15.4006 -2.38798)
(478.659 -19.7406 -2.83718)
(495.978 -26.3856 -3.41635)
(520.001 -37.0508 -4.1403)
(405.877 0.88765 -0.0907202)
(405.138 1.17149 -0.179192)
(405.144 0.860249 -0.254684)
(405.851 0.283338 -0.321942)
(407.041 -0.365481 -0.385577)
(408.606 -1.0242 -0.44722)
(410.524 -1.68572 -0.507963)
(412.81 -2.36026 -0.56984)
(415.503 -3.06567 -0.635806)
(418.661 -3.826 -0.709423)
(422.367 -4.67172 -0.794772)
(426.73 -5.64153 -0.89661)
(431.896 -6.78619 -1.02069)
(438.059 -8.17577 -1.17418)
(445.481 -9.91318 -1.36622)
(454.521 -12.16 -1.60859)
(465.68 -15.1895 -1.9165)
(479.673 -19.497 -2.30965)
(497.216 -26.1026 -2.81317)
(521.551 -36.7217 -3.44105)
(405.874 0.899865 -0.0642846)
(405.123 1.19013 -0.128393)
(405.118 0.876072 -0.183674)
(405.82 0.293982 -0.232543)
(407.012 -0.357261 -0.279797)
(408.582 -1.01586 -0.328234)
(410.509 -1.67648 -0.378914)
(412.808 -2.35014 -0.432741)
(415.518 -3.0547 -0.491169)
(418.699 -3.81388 -0.556218)
(422.434 -4.65789 -0.630434)
(426.833 -5.62509 -0.717008)
(432.043 -6.76588 -0.820001)
(438.26 -8.14992 -0.944648)
(445.747 -9.87963 -1.09772)
(454.869 -12.1161 -1.28795)
(466.127 -15.132 -1.52659)
(480.244 -19.4218 -1.8281)
(497.941 -26.005 -2.21076)
(522.498 -36.5993 -2.68703)
(405.872 0.906262 -0.038291)
(405.115 1.20068 -0.0769395)
(405.102 0.885924 -0.110666)
(405.8 0.301 -0.140268)
(406.99 -0.351767 -0.168592)
(408.563 -1.00975 -0.197629)
(410.492 -1.66832 -0.228062)
(412.795 -2.33912 -0.260293)
(415.511 -3.04009 -0.29513)
(418.701 -3.79491 -0.333872)
(422.448 -4.63374 -0.378225)
(426.864 -5.59497 -0.43031)
(432.097 -6.72896 -0.492771)
(438.343 -8.10536 -0.568952)
(445.868 -9.82652 -0.663107)
(455.036 -12.0534 -0.780658)
(466.355 -15.0584 -0.928508)
(480.548 -19.3359 -1.11547)
(498.34 -25.9049 -1.35245)
(523.033 -36.4858 -1.64832)
(405.871 0.909026 -0.0127198)
(405.111 1.20544 -0.0256333)
(405.095 0.890637 -0.0369898)
(405.79 0.304488 -0.0469493)
(406.98 -0.349137 -0.0564475)
(408.553 -1.00705 -0.0662341)
(410.483 -1.66493 -0.0766151)
(412.788 -2.33477 -0.0877636)
(415.508 -3.03466 -0.0999786)
(418.702 -3.78825 -0.113723)
(422.455 -4.62569 -0.129584)
(426.879 -5.58532 -0.148271)
(432.121 -6.71747 -0.170657)
(438.381 -8.0917 -0.197837)
(445.923 -9.81026 -0.231208)
(455.114 -12.034 -0.272554)
(466.461 -15.0352 -0.324157)
(480.69 -19.308 -0.388945)
(498.528 -25.8713 -0.470521)
(523.288 -36.4477 -0.57239)
(405.871 0.909026 0.0126911)
(405.111 1.20544 0.0255735)
(405.095 0.890637 0.0368974)
(405.79 0.304488 0.0468221)
(406.98 -0.349137 0.0562821)
(408.553 -1.00705 0.0660265)
(410.483 -1.66493 0.0763599)
(412.788 -2.33477 0.0874544)
(415.508 -3.03465 0.0996075)
(418.702 -3.78825 0.11328)
(422.455 -4.62569 0.129057)
(426.879 -5.58532 0.147647)
(432.121 -6.71747 0.169919)
(438.381 -8.09169 0.196963)
(445.923 -9.81026 0.230174)
(455.114 -12.034 0.271331)
(466.461 -15.0352 0.322709)
(480.69 -19.308 0.387228)
(498.528 -25.8712 0.468484)
(523.288 -36.4476 0.569971)
(405.872 0.906263 0.0382629)
(405.115 1.20068 0.0768808)
(405.102 0.885925 0.110576)
(405.8 0.301001 0.140143)
(406.99 -0.351765 0.16843)
(408.563 -1.00975 0.197425)
(410.492 -1.66832 0.227812)
(412.795 -2.33912 0.25999)
(415.511 -3.04009 0.294766)
(418.701 -3.79491 0.333438)
(422.449 -4.63374 0.37771)
(426.864 -5.59496 0.429699)
(432.097 -6.72895 0.492047)
(438.343 -8.10535 0.568096)
(445.868 -9.8265 0.662095)
(455.036 -12.0534 0.77946)
(466.355 -15.0584 0.92709)
(480.548 -19.3359 1.11379)
(498.341 -25.9049 1.35045)
(523.033 -36.4857 1.64595)
(405.874 0.899865 0.0642576)
(405.123 1.19013 0.128337)
(405.118 0.876074 0.183587)
(405.82 0.293985 0.232423)
(407.012 -0.357257 0.279641)
(408.582 -1.01586 0.328039)
(410.509 -1.67647 0.378674)
(412.808 -2.35014 0.432451)
(415.518 -3.05469 0.490821)
(418.7 -3.81387 0.555802)
(422.434 -4.65788 0.629941)
(426.833 -5.62508 0.716423)
(432.043 -6.76587 0.819309)
(438.26 -8.1499 0.94383)
(445.748 -9.87961 1.09675)
(454.869 -12.1161 1.2868)
(466.128 -15.1319 1.52523)
(480.245 -19.4218 1.8265)
(497.942 -26.005 2.20886)
(522.499 -36.5992 2.68477)
(405.877 0.887651 0.0906951)
(405.138 1.17149 0.17914)
(405.144 0.860252 0.254603)
(405.851 0.283342 0.32183)
(407.041 -0.365477 0.385431)
(408.606 -1.0242 0.447037)
(410.524 -1.68571 0.507738)
(412.81 -2.36025 0.569568)
(415.503 -3.06566 0.63548)
(418.662 -3.82598 0.709034)
(422.367 -4.6717 0.794311)
(426.73 -5.64151 0.896064)
(431.896 -6.78616 1.02004)
(438.059 -8.17574 1.17341)
(445.481 -9.91315 1.36531)
(454.522 -12.16 1.60752)
(465.681 -15.1894 1.91523)
(479.674 -19.497 2.30815)
(497.217 -26.1025 2.81139)
(521.552 -36.7215 3.43895)
(405.884 0.864632 0.117434)
(405.161 1.14184 0.227487)
(405.178 0.838427 0.324498)
(405.887 0.267334 0.418374)
(407.072 -0.383277 0.512304)
(408.626 -1.04879 0.605678)
(410.524 -1.7196 0.698144)
(412.782 -2.40522 0.790523)
(415.437 -3.12335 0.884863)
(418.546 -3.89777 0.984426)
(422.192 -4.75869 1.09362)
(426.484 -5.74472 1.218)
(431.566 -6.90673 1.3645)
(437.633 -8.31514 1.54185)
(444.943 -10.0734 1.76113)
(453.852 -12.3438 2.03663)
(464.855 -15.4005 2.38684)
(478.66 -19.7405 2.83583)
(495.979 -26.3855 3.41475)
(520.003 -37.0507 4.1384)
(405.895 0.815254 0.141763)
(405.182 1.09837 0.261616)
(405.183 0.824085 0.3549)
(405.85 0.273766 0.423235)
(406.977 -0.362962 0.471591)
(408.458 -1.014 0.511185)
(410.272 -1.66858 0.55214)
(412.434 -2.33838 0.600677)
(414.982 -3.04314 0.660759)
(417.975 -3.80794 0.735845)
(421.494 -4.66399 0.829697)
(425.648 -5.65069 0.946889)
(430.584 -6.81962 1.09336)
(436.491 -8.24195 1.27702)
(443.626 -10.0219 1.50853)
(452.342 -12.3231 1.80221)
(463.127 -15.4209 2.17735)
(476.68 -19.8146 2.6599)
(493.707 -26.5283 3.2844)
(517.32 -37.2784 4.06278)
(405.906 0.699897 0.145723)
(405.16 1.01016 0.37073)
(405.078 0.77654 0.643417)
(405.625 0.231225 0.887707)
(406.585 -0.420604 1.07278)
(407.859 -1.09298 1.20459)
(409.434 -1.77158 1.29761)
(411.341 -2.46718 1.36541)
(413.627 -3.19854 1.41991)
(416.356 -3.99006 1.4714)
(419.613 -4.87293 1.52881)
(423.509 -5.88711 1.60033)
(428.188 -7.08518 1.69435)
(433.841 -8.53959 1.82032)
(440.72 -10.3563 1.9897)
(449.173 -12.7006 2.21709)
(459.684 -15.8509 2.52176)
(472.941 -20.3097 2.92986)
(489.646 -27.1057 3.47667)
(512.847 -37.9618 4.16815)
(405.502 0.70235 -0.373657)
(404.099 1.15628 -0.639235)
(403.372 1.05132 -0.815561)
(403.366 0.616628 -0.89582)
(403.831 0.0693509 -0.887282)
(404.643 -0.513163 -0.816138)
(405.785 -1.12484 -0.708953)
(407.286 -1.77765 -0.58169)
(409.192 -2.48809 -0.441476)
(411.567 -3.27788 -0.291076)
(414.495 -4.17559 -0.130934)
(418.087 -5.2189 0.0405695)
(422.483 -6.45891 0.227165)
(427.873 -7.96745 0.434875)
(434.508 -9.85068 0.672509)
(442.732 -12.2753 0.952511)
(453.024 -15.522 1.29227)
(466.065 -20.0984 1.71653)
(482.557 -27.0375 2.25767)
(505.473 -38.0754 2.90523)
(403.051 1.64723 1.93297)
(399.661 2.49323 3.09975)
(397.286 2.42433 3.36707)
(395.873 1.94016 3.23914)
(395.181 1.32254 3.00606)
(395.081 0.652658 2.75927)
(395.515 -0.058551 2.5221)
(396.463 -0.815023 2.30538)
(397.935 -1.62774 2.11576)
(399.966 -2.51614 1.95596)
(402.625 -3.509 1.82752)
(406.007 -4.64504 1.73126)
(410.247 -5.97676 1.66822)
(415.525 -7.57783 1.64062)
(422.088 -9.55728 1.65261)
(430.277 -12.0862 1.71137)
(440.567 -15.4518 1.82848)
(453.635 -20.1713 2.023)
(470.196 -27.2842 2.31625)
(493.223 -38.5756 2.67558)
(349.327 3.26234 -15.1787)
(351.449 4.77618 -11.3681)
(353.281 4.91525 -8.87892)
(354.783 4.54454 -7.15614)
(356.209 4.00678 -5.8651)
(357.754 3.37518 -4.85614)
(359.515 2.66089 -4.05158)
(361.552 1.86786 -3.39895)
(363.935 0.992298 -2.86026)
(366.753 0.0191973 -2.40767)
(370.104 -1.0775 -2.02127)
(374.112 -2.33598 -1.68578)
(378.931 -3.8092 -1.38912)
(384.76 -5.57267 -1.12118)
(391.863 -7.73939 -0.872904)
(400.598 -10.4881 -0.635413)
(411.454 -14.1199 -0.399079)
(425.119 -19.1759 -0.151757)
(442.322 -26.7162 0.119719)
(466.101 -38.6732 0.366579)
(349.074 -0.941406 15.1427)
(351.362 -1.91612 11.1833)
(353.644 -2.86069 8.52109)
(355.854 -3.69946 6.67005)
(358.01 -4.42805 5.29717)
(360.197 -5.10509 4.23445)
(362.496 -5.79257 3.39393)
(364.979 -6.53875 2.71903)
(367.714 -7.3859 2.16916)
(370.783 -8.37844 1.71498)
(374.287 -9.56753 1.33394)
(378.332 -11.0167 1.00889)
(383.049 -12.8078 0.726287)
(388.599 -15.0514 0.475009)
(395.181 -17.9031 0.245453)
(403.044 -21.5924 0.0283634)
(412.491 -26.4704 -0.186394)
(423.873 -33.0868 -0.411192)
(437.435 -42.325 -0.65997)
(454.398 -55.4052 -0.900765)
(405.486 -0.806504 -0.981423)
(404.042 -1.53961 -1.74513)
(403.252 -2.20021 -1.96629)
(403.16 -2.7957 -1.88003)
(403.518 -3.34808 -1.71165)
(404.2 -3.90043 -1.54838)
(405.188 -4.49879 -1.40819)
(406.507 -5.1823 -1.29356)
(408.198 -5.98624 -1.20568)
(410.319 -6.94847 -1.14448)
(412.938 -8.1142 -1.10992)
(416.152 -9.53963 -1.10414)
(420.081 -11.2985 -1.12935)
(424.877 -13.4918 -1.18856)
(430.732 -16.264 -1.28662)
(437.89 -19.8294 -1.43139)
(446.651 -24.5153 -1.6351)
(457.379 -30.8392 -1.91648)
(470.332 -39.6399 -2.29656)
(486.743 -51.9904 -2.74576)
(433.886 -1.6826 1.2643)
(430.787 -2.66616 1.79693)
(428.365 -3.23553 1.89861)
(426.891 -3.66194 1.82682)
(426.133 -4.04491 1.66565)
(425.887 -4.43765 1.45099)
(426.085 -4.88778 1.21103)
(426.722 -5.43695 0.964732)
(427.823 -6.12132 0.7209)
(429.427 -6.977 0.481365)
(431.591 -8.04554 0.244315)
(434.4 -9.37921 0.00602751)
(437.965 -11.0477 -0.239322)
(442.43 -13.1477 -0.499634)
(447.981 -15.8176 -0.785429)
(454.859 -19.263 -1.11052)
(463.365 -23.8011 -1.49279)
(473.868 -29.9353 -1.95616)
(486.627 -38.4848 -2.5291)
(502.887 -50.4502 -3.19844)
(436.379 -2.32711 -0.177193)
(435.394 -3.53117 -0.290952)
(434.55 -4.09252 -0.451255)
(434.128 -4.46423 -0.606424)
(434.089 -4.79751 -0.717764)
(434.362 -5.14663 -0.792849)
(434.941 -5.5538 -0.848957)
(435.864 -6.0585 -0.898477)
(437.182 -6.69634 -0.949908)
(438.955 -7.50258 -1.01022)
(441.257 -8.51771 -1.08549)
(444.18 -9.7928 -1.18158)
(447.841 -11.3958 -1.30519)
(452.39 -13.421 -1.46459)
(458.017 -16.0038 -1.67021)
(464.968 -19.3462 -1.93546)
(473.551 -23.7605 -2.27794)
(484.144 -29.7428 -2.72093)
(497.01 -38.1026 -3.29366)
(513.438 -49.8137 -3.99412)
(436.445 -2.24523 -0.228777)
(435.742 -3.51037 -0.293838)
(435.385 -4.13934 -0.311376)
(435.493 -4.55222 -0.33695)
(435.975 -4.91014 -0.367055)
(436.752 -5.27191 -0.400201)
(437.811 -5.67974 -0.441783)
(439.181 -6.17382 -0.496298)
(440.909 -6.79164 -0.566147)
(443.057 -7.57026 -0.653354)
(445.702 -8.55119 -0.760656)
(448.94 -9.78573 -0.891959)
(452.895 -11.3415 -1.05273)
(457.72 -13.3117 -1.25048)
(463.614 -15.8301 -1.49528)
(470.827 -19.0964 -1.80054)
(479.677 -23.4194 -2.18389)
(490.553 -29.2901 -2.66819)
(503.722 -37.5113 -3.28208)
(520.52 -49.0476 -4.02893)
(436.408 -2.14839 -0.154286)
(435.697 -3.44489 -0.249717)
(435.437 -4.13446 -0.311614)
(435.708 -4.58551 -0.380226)
(436.376 -4.96414 -0.459052)
(437.354 -5.34049 -0.540333)
(438.626 -5.76038 -0.621157)
(440.219 -6.26363 -0.702951)
(442.176 -6.88682 -0.788633)
(444.556 -7.6663 -0.881828)
(447.437 -8.64281 -0.987)
(450.914 -9.86677 -1.10963)
(455.11 -11.4048 -1.25647)
(460.183 -13.3488 -1.43591)
(466.332 -15.8313 -1.65849)
(473.814 -19.05 -1.9376)
(482.952 -23.3111 -2.29023)
(494.147 -29.102 -2.73777)
(507.67 -37.2214 -3.30662)
(524.919 -48.6314 -4.00319)
(436.391 -2.1036 -0.106799)
(435.648 -3.40139 -0.194408)
(435.383 -4.11458 -0.254604)
(435.682 -4.58132 -0.307326)
(436.395 -4.9641 -0.362857)
(437.429 -5.33926 -0.420747)
(438.771 -5.75616 -0.479753)
(440.448 -6.25498 -0.541227)
(442.504 -6.87186 -0.608076)
(444.997 -7.64283 -0.683731)
(448.002 -8.60838 -0.772025)
(451.615 -9.8186 -0.877459)
(455.96 -11.3396 -1.00555)
(461.195 -13.2626 -1.16321)
(467.522 -15.7192 -1.35925)
(475.201 -18.9058 -1.60489)
(484.563 -23.127 -1.9144)
(496.013 -28.8678 -2.30575)
(509.829 -36.9237 -2.80098)
(527.456 -48.256 -3.40707)
(436.383 -2.08124 -0.0719263)
(435.618 -3.37213 -0.137227)
(435.339 -4.09404 -0.185112)
(435.638 -4.57066 -0.224713)
(436.363 -4.95773 -0.265768)
(437.415 -5.33306 -0.31098)
(438.781 -5.74861 -0.35972)
(440.488 -6.24559 -0.411977)
(442.582 -6.86009 -0.469053)
(445.122 -7.6279 -0.533022)
(448.182 -8.58928 -0.606451)
(451.861 -9.79402 -0.692521)
(456.282 -11.3078 -0.795278)
(461.605 -13.2215 -0.919917)
(468.035 -15.6658 -1.0731)
(475.834 -18.8366 -1.26334)
(485.337 -23.0373 -1.50144)
(496.956 -28.7518 -1.80095)
(510.973 -36.7739 -2.17842)
(528.869 -48.0658 -2.64075)
(436.379 -2.06957 -0.041728)
(435.603 -3.35462 -0.0812361)
(435.311 -4.07969 -0.11159)
(435.607 -4.56214 -0.136218)
(436.335 -4.95232 -0.160903)
(437.393 -5.32754 -0.188155)
(438.765 -5.7412 -0.217866)
(440.482 -6.23546 -0.249823)
(442.589 -6.84655 -0.284682)
(445.146 -7.61019 -0.323758)
(448.23 -8.56655 -0.368742)
(451.938 -9.76538 -0.421697)
(456.395 -11.2723 -0.485199)
(461.763 -13.1779 -0.562516)
(468.247 -15.6129 -0.657806)
(476.113 -18.7727 -0.776345)
(485.696 -22.9605 -0.9248)
(497.414 -28.6595 -1.11153)
(511.552 -36.6631 -1.34661)
(529.611 -47.9347 -1.63507)
(436.377 -2.06449 -0.0137059)
(435.596 -3.34655 -0.0269105)
(435.299 -4.07255 -0.0373028)
(435.592 -4.55761 -0.0457071)
(436.321 -4.94942 -0.0539895)
(437.381 -5.32468 -0.063147)
(438.756 -5.73746 -0.0732491)
(440.475 -6.23042 -0.0842387)
(442.587 -6.83999 -0.0963333)
(445.151 -7.60184 -0.109983)
(448.244 -8.55611 -0.125766)
(451.963 -9.75251 -0.14437)
(456.435 -11.2566 -0.166651)
(461.821 -13.159 -0.19369)
(468.328 -15.5903 -0.226871)
(476.223 -18.7457 -0.267956)
(485.843 -22.9283 -0.319179)
(497.606 -28.6212 -0.383354)
(511.8 -36.6176 -0.463867)
(529.936 -47.882 -0.5627)
(436.377 -2.06449 0.0136786)
(435.596 -3.34655 0.0268537)
(435.299 -4.07255 0.0372152)
(435.592 -4.55761 0.0455866)
(436.321 -4.94942 0.0538328)
(437.381 -5.32468 0.0629502)
(438.756 -5.73746 0.0730072)
(440.475 -6.23042 0.0839453)
(442.587 -6.83999 0.0959808)
(445.151 -7.60183 0.109562)
(448.244 -8.5561 0.125265)
(451.963 -9.75251 0.143775)
(456.435 -11.2566 0.165945)
(461.821 -13.159 0.192854)
(468.328 -15.5903 0.22588)
(476.223 -18.7457 0.266781)
(485.843 -22.9283 0.317784)
(497.606 -28.6212 0.381696)
(511.8 -36.6176 0.461893)
(529.936 -47.882 0.560348)
(436.379 -2.06957 0.0417013)
(435.603 -3.35461 0.0811805)
(435.311 -4.07969 0.111504)
(435.607 -4.56214 0.1361)
(436.335 -4.95232 0.160749)
(437.393 -5.32753 0.187962)
(438.765 -5.7412 0.217629)
(440.482 -6.23545 0.249535)
(442.589 -6.84654 0.284337)
(445.147 -7.61018 0.323346)
(448.23 -8.56654 0.368251)
(451.938 -9.76537 0.421115)
(456.395 -11.2723 0.484509)
(461.763 -13.1779 0.561698)
(468.247 -15.6129 0.656836)
(476.113 -18.7727 0.775195)
(485.696 -22.9604 0.923435)
(497.415 -28.6595 1.1099)
(511.552 -36.6631 1.34468)
(529.612 -47.9346 1.63277)
(436.383 -2.08124 0.0719007)
(435.618 -3.37213 0.137174)
(435.339 -4.09404 0.18503)
(435.638 -4.57066 0.2246)
(436.363 -4.95772 0.265621)
(437.415 -5.33305 0.310795)
(438.781 -5.74861 0.359493)
(440.488 -6.24558 0.411701)
(442.582 -6.86008 0.468722)
(445.122 -7.62789 0.532627)
(448.182 -8.58927 0.605981)
(451.861 -9.794 0.691963)
(456.282 -11.3078 0.794617)
(461.605 -13.2214 0.919133)