/*--------------------------------*- C++ -*----------------------------------*\
  =========                 |
  \\      /  F ield         | OpenFOAM: The Open Source CFD Toolbox
   \\    /   O peration     | Website:  https://openfoam.org
    \\  /    A nd           | Version:  10
     \\/     M anipulation  |
\*---------------------------------------------------------------------------*/
FoamFile
{
    format      ascii;
    class       volScalarField;
    location    "100";
    object      alphat;
}
// * * * * * * * * * * * * * * * * * * * * * * * * * * * * * * * * * * * * * //

dimensions      [1 -1 -1 0 0 0 0];

internalField   nonuniform List<scalar> 
112000
(
0.00276496
0.00278745
0.00281262
0.00284116
0.00287086
0.00290038
0.00292935
0.00295777
0.00298563
0.00301283
0.00303922
0.00306468
0.00308906
0.00311219
0.00313374
0.00315316
0.0031695
0.00318108
0.00318541
0.00317433
0.00277507
0.00283629
0.0028948
0.00295185
0.00300691
0.00305947
0.00310947
0.00315702
0.00320223
0.00324512
0.00328563
0.00332367
0.00335915
0.00339189
0.00342161
0.0034478
0.00346962
0.0034856
0.00349423
0.00348941
0.00278133
0.00285232
0.00292228
0.0029905
0.00305629
0.00311913
0.00317877
0.00323517
0.00328839
0.00333845
0.00338532
0.00342888
0.00346905
0.00350565
0.00353838
0.00356672
0.00358975
0.00360591
0.00361363
0.0036067
0.00278223
0.00285483
0.00292835
0.00300177
0.00307379
0.00314341
0.00321003
0.00327332
0.00333315
0.00338938
0.00344184
0.00349037
0.00353483
0.00357501
0.00361057
0.00364092
0.00366506
0.00368121
0.00368746
0.00367681
0.00278209
0.00285497
0.00292949
0.0030046
0.00307879
0.00315094
0.00322039
0.00328676
0.00334982
0.00340934
0.00346511
0.0035169
0.00356452
0.00360771
0.00364609
0.00367897
0.00370525
0.00372299
0.00372996
0.00371849
0.00278182
0.00285467
0.00292929
0.0030047
0.00307943
0.0031524
0.00322297
0.00329076
0.00335549
0.00341691
0.00347474
0.00352871
0.00357858
0.00362403
0.00366461
0.00369959
0.00372778
0.00374716
0.00375533
0.00374416
0.00278159
0.0028544
0.00292899
0.00300443
0.00307926
0.00315241
0.00322325
0.0032914
0.0033566
0.00341861
0.00347713
0.00353192
0.00358269
0.00362914
0.0036708
0.00370693
0.00373631
0.00375688
0.00376621
0.00375594
0.0027814
0.00285419
0.00292876
0.00300419
0.00307901
0.00315217
0.00322304
0.00329126
0.00335658
0.00341876
0.00347752
0.00353259
0.00358371
0.00363057
0.00367269
0.00370933
0.00373928
0.00376043
0.00377036
0.00376063
0.00278128
0.00285406
0.00292861
0.00300402
0.00307883
0.00315198
0.00322283
0.00329105
0.00335638
0.00341857
0.00347736
0.00353248
0.00358367
0.00363062
0.00367286
0.00370966
0.00373978
0.00376114
0.00377132
0.00376184
0.00278122
0.00285399
0.00292854
0.00300394
0.00307874
0.00315188
0.00322272
0.00329093
0.00335624
0.00341843
0.00347721
0.00353233
0.00358353
0.0036305
0.00367276
0.00370958
0.00373974
0.00376115
0.00377139
0.00376196
0.00278122
0.00285399
0.00292854
0.00300394
0.00307874
0.00315188
0.00322273
0.00329093
0.00335624
0.00341843
0.00347721
0.00353233
0.00358353
0.0036305
0.00367277
0.00370959
0.00373975
0.00376116
0.0037714
0.00376197
0.00278128
0.00285406
0.00292861
0.00300402
0.00307883
0.00315198
0.00322284
0.00329105
0.00335638
0.00341857
0.00347736
0.00353248
0.00358367
0.00363063
0.00367287
0.00370966
0.00373979
0.00376115
0.00377133
0.00376185
0.0027814
0.00285419
0.00292876
0.00300419
0.00307901
0.00315217
0.00322304
0.00329126
0.00335658
0.00341876
0.00347752
0.0035326
0.00358372
0.00363058
0.0036727
0.00370934
0.00373929
0.00376044
0.00377038
0.00376065
0.00278158
0.00285439
0.00292899
0.00300443
0.00307926
0.00315241
0.00322325
0.0032914
0.0033566
0.00341861
0.00347714
0.00353192
0.0035827
0.00362915
0.00367081
0.00370694
0.00373633
0.0037569
0.00376623
0.00375596
0.00278182
0.00285467
0.00292929
0.0030047
0.00307943
0.0031524
0.00322297
0.00329076
0.0033555
0.00341692
0.00347475
0.00352872
0.00357859
0.00362404
0.00366462
0.0036996
0.0037278
0.00374718
0.00375535
0.00374419
0.00278209
0.00285497
0.00292949
0.0030046
0.00307879
0.00315094
0.00322039
0.00328677
0.00334982
0.00340935
0.00346512
0.00351692
0.00356454
0.00360774
0.00364611
0.003679
0.00370528
0.00372302
0.00373
0.00371853
0.00278223
0.00285483
0.00292835
0.00300177
0.00307379
0.00314341
0.00321003
0.00327333
0.00333316
0.00338939
0.00344186
0.0034904
0.00353486
0.00357504
0.0036106
0.00364096
0.0036651
0.00368125
0.0036875
0.00367686
0.00278133
0.00285232
0.00292228
0.0029905
0.00305629
0.00311914
0.00317878
0.00323518
0.0032884
0.00333848
0.00338535
0.00342892
0.00346909
0.0035057
0.00353843
0.00356678
0.00358981
0.00360598
0.0036137
0.00360677
0.00277507
0.00283628
0.0028948
0.00295187
0.00300693
0.00305951
0.00310952
0.00315709
0.00320231
0.00324522
0.00328574
0.00332379
0.00335928
0.00339203
0.00342176
0.00344796
0.00346977
0.00348576
0.0034944
0.00348958
0.00276496
0.00278743
0.00281258
0.00284112
0.00287081
0.00290033
0.0029293
0.00295771
0.00298556
0.00301276
0.00303915
0.0030646
0.00308898
0.00311211
0.00313366
0.00315307
0.00316941
0.00318099
0.00318532
0.00317424
0.00277522
0.00283555
0.00289271
0.00294801
0.00300095
0.00305107
0.0030983
0.0031428
0.00318473
0.00322424
0.00326128
0.00329577
0.00332763
0.00335674
0.00338287
0.00340558
0.00342408
0.00343703
0.00344246
0.00343669
0.0261814
0.0235848
0.0218188
0.0204916
0.0194385
0.0185697
0.0178313
0.0171898
0.0166216
0.0161079
0.0156389
0.0152075
0.0148089
0.0144403
0.0141006
0.0137911
0.0135166
0.0132881
0.0131401
0.0131015
0.0289521
0.0276451
0.0265221
0.0255107
0.0245968
0.023768
0.0230119
0.0223183
0.0216792
0.0210879
0.020539
0.0200285
0.0195543
0.0191161
0.0187164
0.0183611
0.0180624
0.0178438
0.017768
0.017889
0.0291594
0.0281336
0.0272771
0.0264935
0.025761
0.0250705
0.0244154
0.0237922
0.0231987
0.0226333
0.0220949
0.0215826
0.0210969
0.0206396
0.0202147
0.01983
0.0194995
0.01925
0.0191533
0.0192744
0.0291837
0.0282133
0.0274394
0.0267538
0.0261216
0.025525
0.024953
0.0243998
0.0238625
0.0233396
0.0228305
0.0223353
0.021855
0.0213921
0.0209507
0.0205378
0.0201662
0.0198595
0.0196862
0.0197044
0.0291852
0.0282219
0.0274649
0.0268073
0.0262119
0.0256577
0.0251312
0.0246241
0.0241313
0.0236497
0.0231774
0.0227134
0.0222581
0.0218129
0.0213811
0.0209684
0.0205855
0.0202523
0.0200316
0.0199705
0.0291841
0.0282209
0.0274662
0.0268151
0.0262308
0.0256921
0.0251847
0.0246995
0.0242306
0.0237742
0.0233272
0.0228881
0.0224561
0.0220322
0.0216186
0.0212201
0.0208458
0.0205132
0.0202813
0.0201885
0.0291829
0.0282193
0.0274641
0.0268136
0.0262315
0.0256966
0.0251949
0.0247171
0.0242574
0.0238117
0.0233768
0.0229508
0.0225326
0.0221228
0.0217233
0.0213383
0.0209763
0.0206533
0.0204269
0.0203307
0.029182
0.0282182
0.0274624
0.0268116
0.0262297
0.0256956
0.0251953
0.0247197
0.024263
0.0238211
0.0233909
0.0229703
0.0225584
0.0221556
0.0217637
0.0213867
0.021033
0.0207181
0.0204993
0.0204077
0.0291815
0.0282176
0.0274617
0.0268106
0.0262286
0.0256945
0.0251944
0.0247192
0.0242632
0.0238224
0.0233935
0.0229747
0.022565
0.0221647
0.0217757
0.021402
0.0210519
0.020741
0.0205263
0.0204384
0.0291815
0.0282176
0.0274617
0.0268106
0.0262285
0.0256945
0.0251944
0.0247192
0.0242632
0.0238224
0.0233935
0.0229747
0.0225649
0.0221646
0.0217756
0.0214019
0.0210518
0.0207409
0.0205263
0.0204384
0.029182
0.0282182
0.0274624
0.0268116
0.0262297
0.0256956
0.0251953
0.0247196
0.0242629
0.023821
0.0233909
0.0229703
0.0225584
0.0221556
0.0217636
0.0213867
0.0210329
0.0207181
0.0204992
0.0204076
0.0291829
0.0282193
0.0274641
0.0268136
0.0262315
0.0256966
0.0251948
0.024717
0.0242574
0.0238116
0.0233768
0.0229507
0.0225326
0.0221228
0.0217233
0.0213382
0.0209762
0.0206532
0.0204269
0.0203306
0.0291841
0.0282209
0.0274662
0.0268151
0.0262308
0.0256921
0.0251847
0.0246994
0.0242306
0.0237741
0.0233272
0.022888
0.0224561
0.0220321
0.0216185
0.02122
0.0208458
0.0205132
0.0202813
0.0201884
0.0291852
0.0282218
0.0274649
0.0268073
0.0262119
0.0256577
0.0251312
0.0246241
0.0241313
0.0236497
0.0231774
0.0227134
0.022258
0.0218128
0.021381
0.0209684
0.0205855
0.0202523
0.0200315
0.0199704
0.0291837
0.0282132
0.0274394
0.0267538
0.0261216
0.025525
0.024953
0.0243999
0.0238625
0.0233397
0.0228306
0.0223353
0.021855
0.0213921
0.0209507
0.0205378
0.0201662
0.0198595
0.0196862
0.0197043
0.0291594
0.0281335
0.0272771
0.0264934
0.025761
0.0250704
0.0244154
0.0237922
0.0231987
0.0226334
0.022095
0.0215827
0.0210971
0.0206398
0.020215
0.0198302
0.0194998
0.0192502
0.0191535
0.0192746
0.0289521
0.0276449
0.0265219
0.0255106
0.0245966
0.0237678
0.0230117
0.0223181
0.0216789
0.0210877
0.0205388
0.0200284
0.0195542
0.0191161
0.0187165
0.0183612
0.0180626
0.017844
0.0177683
0.0178894
0.0261816
0.0235839
0.021818
0.0204913
0.0194387
0.0185703
0.0178323
0.0171911
0.0166233
0.0161098
0.015641
0.0152098
0.0148114
0.0144429
0.0141033
0.0137938
0.0135193
0.0132909
0.0131429
0.0131044
0.00277523
0.00283542
0.00289249
0.00294774
0.00300064
0.00305074
0.00309798
0.00314247
0.00318441
0.00322393
0.00326098
0.00329548
0.00332736
0.00335648
0.00338263
0.00340535
0.00342387
0.00343684
0.00344229
0.00343655
0.00278274
0.0028533
0.00292242
0.00298938
0.00305353
0.00311438
0.0031717
0.00322551
0.00327591
0.00332299
0.00336696
0.00340772
0.0034452
0.00347931
0.00350988
0.00353662
0.00355899
0.00357614
0.00358693
0.0035897
0.0289891
0.0276992
0.0265867
0.025582
0.0246714
0.0238431
0.0230853
0.0223876
0.021742
0.0211397
0.0205666
0.0200215
0.0195034
0.0190125
0.01855
0.0181184
0.0177234
0.0173764
0.0171009
0.0169085
0.0334205
0.0335838
0.0336007
0.0334443
0.0331482
0.0327535
0.0322921
0.0317873
0.0312569
0.0307119
0.0301599
0.0296094
0.0290681
0.028544
0.028046
0.0275864
0.027184
0.0268678
0.0266906
0.0266773
0.0338669
0.0344793
0.0348979
0.0351075
0.0351372
0.0350264
0.034809
0.034512
0.034157
0.0337613
0.0333388
0.0329007
0.0324577
0.0320215
0.0316055
0.0312282
0.030917
0.0307144
0.030697
0.0309092
0.0339476
0.0347108
0.0352876
0.0356465
0.0358074
0.035806
0.035676
0.0354464
0.0351413
0.0347806
0.0343803
0.0339538
0.0335132
0.033071
0.0326415
0.032244
0.0319072
0.0316766
0.0316377
0.0318495
0.0339587
0.0347576
0.0353916
0.0358226
0.0360626
0.0361395
0.0360815
0.0359143
0.03566
0.0353376
0.0349625
0.0345481
0.0341063
0.033649
0.0331898
0.0327459
0.0323434
0.0320233
0.0318684
0.031938
0.0339581
0.0347618
0.0354093
0.0358644
0.0361379
0.0362551
0.0362418
0.0361205
0.0359112
0.0356308
0.0352931
0.0349097
0.0344912
0.034048
0.0335918
0.0331376
0.0327077
0.0323377
0.0321034
0.0320565
0.0339564
0.0347597
0.0354088
0.0358691
0.0361522
0.0362836
0.0362885
0.0361891
0.0360045
0.0357504
0.0354398
0.0350832
0.0346899
0.0342693
0.0338315
0.0333898
0.0329639
0.0325854
0.0323249
0.0322267
0.0339551
0.0347579
0.0354064
0.0358671
0.0361521
0.0362873
0.0362981
0.0362067
0.036032
0.0357899
0.0354928
0.0351511
0.0347735
0.0343689
0.0339467
0.0335194
0.0331052
0.0327336
0.0324728
0.0323619
0.0339545
0.034757
0.035405
0.0358654
0.0361506
0.0362866
0.0362988
0.0362095
0.0360379
0.0357998
0.0355076
0.0351716
0.0348006
0.0344032
0.0339887
0.033569
0.0331622
0.0327969
0.0325401
0.0324289
0.0339545
0.034757
0.035405
0.0358654
0.0361506
0.0362866
0.0362988
0.0362095
0.0360379
0.0357998
0.0355076
0.0351716
0.0348006
0.0344032
0.0339887
0.033569
0.0331622
0.0327969
0.0325401
0.0324289
0.0339551
0.0347579
0.0354064
0.0358671
0.0361521
0.0362873
0.0362981
0.0362067
0.036032
0.0357899
0.0354928
0.0351511
0.0347735
0.0343689
0.0339467
0.0335194
0.0331051
0.0327336
0.0324728
0.0323618
0.0339563
0.0347597
0.0354088
0.0358691
0.0361522
0.0362836
0.0362885
0.0361891
0.0360045
0.0357504
0.0354398
0.0350832
0.0346899
0.0342693
0.0338315
0.0333898
0.0329639
0.0325854
0.0323249
0.0322267
0.033958
0.0347617
0.0354093
0.0358644
0.0361379
0.0362551
0.0362418
0.0361205
0.0359113
0.0356308
0.0352931
0.0349097
0.0344912
0.034048
0.0335918
0.0331376
0.0327077
0.0323377
0.0321033
0.0320564
0.0339587
0.0347576
0.0353916
0.0358226
0.0360626
0.0361395
0.0360816
0.0359143
0.0356601
0.0353376
0.0349626
0.0345482
0.0341063
0.0336491
0.0331898
0.0327459
0.0323433
0.0320232
0.0318683
0.0319379
0.0339476
0.0347108
0.0352876
0.0356464
0.0358074
0.0358059
0.0356759
0.0354463
0.0351412
0.0347806
0.0343804
0.0339539
0.0335133
0.033071
0.0326416
0.0322441
0.0319073
0.0316766
0.0316377
0.0318495
0.0338669
0.0344792
0.0348979
0.0351075
0.0351371
0.0350262
0.0348088
0.0345117
0.0341567
0.0337611
0.0333386
0.0329007
0.0324579
0.0320217
0.0316058
0.0312286
0.0309175
0.030715
0.0306977
0.0309099
0.0334205
0.0335833
0.0336003
0.0334442
0.0331481
0.0327533
0.0322918
0.0317868
0.0312563
0.0307113
0.0301593
0.0296089
0.0290677
0.0285436
0.0280457
0.0275863
0.027184
0.026868
0.026691
0.026678
0.0289893
0.0276979
0.0265857
0.025582
0.0246723
0.0238449
0.0230877
0.0223906
0.0217454
0.0211434
0.0205706
0.0200256
0.0195076
0.0190168
0.0185543
0.0181226
0.0177276
0.0173805
0.0171049
0.0169124
0.00278275
0.00285317
0.00292219
0.00298908
0.0030532
0.00311403
0.00317135
0.00322517
0.00327557
0.00332267
0.00336665
0.00340743
0.00344494
0.00347907
0.00350967
0.00353643
0.00355882
0.003576
0.00358682
0.00358962
0.00278501
0.00285731
0.00293013
0.00300247
0.00307302
0.00314083
0.00320532
0.00326622
0.00332344
0.0033769
0.00342649
0.00347216
0.0035139
0.0035517
0.00358557
0.00361565
0.00364163
0.00366307
0.00367947
0.00369034
0.0292137
0.028209
0.0273676
0.0265949
0.0258708
0.025187
0.024538
0.0239203
0.0233319
0.0227711
0.0222358
0.0217247
0.0212376
0.0207765
0.0203417
0.0199238
0.0195312
0.0191759
0.018876
0.0186416
0.0339174
0.0345479
0.0349802
0.0352002
0.0352379
0.0351332
0.0349201
0.0346252
0.0342699
0.0338709
0.0334414
0.0329929
0.0325358
0.0320772
0.0316237
0.0311896
0.030795
0.030468
0.0302486
0.03016
0.0351043
0.0354124
0.0358355
0.0362761
0.0366725
0.0369988
0.0372445
0.0374062
0.0374858
0.0374885
0.0374219
0.0372942
0.0371159
0.0369009
0.0366659
0.0364331
0.0362334
0.0361098
0.0361241
0.036317
0.035332
0.0357895
0.0362639
0.03672
0.0371294
0.0374805
0.0377686
0.0379908
0.0381463
0.0382361
0.038263
0.0382322
0.0381514
0.0380317
0.0378891
0.0377463
0.0376368
0.0376099
0.0377401
0.0380836
0.0353809
0.0359366
0.0365018
0.0370319
0.0374978
0.0378885
0.0382007
0.0384339
0.0385895
0.0386706
0.0386812
0.0386271
0.0385158
0.0383582
0.0381689
0.0379693
0.0377916
0.0376844
0.0377266
0.0379842
0.0353863
0.0359668
0.0365701
0.0371473
0.0376653
0.0381087
0.0384701
0.0387459
0.0389356
0.0390409
0.039065
0.0390127
0.0388906
0.0387082
0.0384786
0.0382204
0.0379622
0.0377479
0.0376528
0.0377434
0.0353847
0.035969
0.0365815
0.0371744
0.0377147
0.0381859
0.0385789
0.0388884
0.0391121
0.0392498
0.0393031
0.039275
0.0391705
0.0389973
0.0387662
0.0384932
0.0382029
0.0379341
0.037756
0.0377304
0.0353831
0.0359674
0.0365811
0.0371775
0.0377241
0.038205
0.0386111
0.0389368
0.0391791
0.0393373
0.0394118
0.0394049
0.0393205
0.0391648
0.0389471
0.0386815
0.03839
0.0381076
0.0378991
0.0378212
0.0353822
0.0359663
0.0365799
0.0371767
0.0377246
0.0382079
0.0386179
0.038949
0.0391982
0.0393646
0.0394486
0.039452
0.0393783
0.0392332
0.0390252
0.0387676
0.0384812
0.0381991
0.0379841
0.0378899
0.0353822
0.0359663
0.0365799
0.0371767
0.0377246
0.0382079
0.0386179
0.038949
0.0391982
0.0393646
0.0394486
0.039452
0.0393783
0.0392332
0.0390252
0.0387677
0.0384812
0.0381991
0.0379841
0.0378899
0.0353831
0.0359674
0.0365811
0.0371774
0.0377241
0.038205
0.0386111
0.0389368
0.0391791
0.0393373
0.0394119
0.039405
0.0393205
0.0391648
0.0389471
0.0386816
0.0383901
0.0381076
0.0378991
0.0378212
0.0353847
0.0359689
0.0365814
0.0371744
0.0377147
0.0381859
0.0385789
0.0388884
0.0391121
0.0392498
0.0393031
0.039275
0.0391705
0.0389973
0.0387662
0.0384932
0.038203
0.0379341
0.037756
0.0377303
0.0353862
0.0359668
0.0365701
0.0371472
0.0376653
0.0381088
0.0384701
0.0387459
0.0389357
0.039041
0.0390651
0.0390127
0.0388907
0.0387083
0.0384786
0.0382204
0.0379622
0.0377479
0.0376527
0.0377432
0.0353808
0.0359365
0.0365018
0.0370319
0.0374977
0.0378884
0.0382006
0.0384338
0.0385894
0.0386705
0.0386812
0.038627
0.0385158
0.0383581
0.0381688
0.0379693
0.0377915
0.0376843
0.0377264
0.037984
0.035332
0.0357894
0.0362639
0.03672
0.0371294
0.0374804
0.0377684
0.0379906
0.0381461
0.0382358
0.0382628
0.038232
0.0381512
0.0380316
0.037889
0.0377463
0.0376369
0.0376099
0.0377402
0.0380838
0.0351043
0.0354121
0.0358353
0.036276
0.0366724
0.0369987
0.0372443
0.037406
0.0374856
0.0374883
0.0374218
0.0372942
0.0371161
0.0369012
0.0366663
0.0364337
0.0362341
0.0361107
0.0361251
0.0363182
0.0339175
0.0345471
0.0349794
0.0351997
0.0352375
0.0351328
0.0349197
0.0346247
0.0342692
0.0338701
0.0334405
0.032992
0.0325349
0.0320765
0.0316231
0.0311893
0.0307948
0.030468
0.0302489
0.0301606
0.0292139
0.0282076
0.0273665
0.0265948
0.0258717
0.0251888
0.0245406
0.0239235
0.0233355
0.0227749
0.0222398
0.0217289
0.0212418
0.0207807
0.0203459
0.019928
0.0195353
0.01918
0.0188799
0.0186455
0.00278502
0.00285717
0.0029299
0.00300216
0.00307268
0.00314047
0.00320495
0.00326586
0.0033231
0.00337656
0.00342618
0.00347188
0.00351365
0.00355148
0.00358538
0.00361548
0.00364149
0.00366295
0.00367939
0.00369029
0.00278654
0.00285922
0.00293321
0.00300745
0.00308043
0.00315104
0.00321865
0.00328295
0.00334374
0.00340087
0.0034542
0.00350365
0.0035492
0.00359086
0.00362869
0.00366287
0.00369324
0.00371969
0.00374216
0.00376072
0.0292558
0.0283077
0.0275516
0.0268803
0.0262606
0.0256758
0.0251161
0.0245764
0.0240545
0.0235493
0.0230604
0.022588
0.0221336
0.0216995
0.0212871
0.0208932
0.0205258
0.0201948
0.0199129
0.0196868
0.0340272
0.0348206
0.0354262
0.0358132
0.0360025
0.0360299
0.0359295
0.0357304
0.0354567
0.0351281
0.0347604
0.034367
0.03396
0.033552
0.033152
0.0327701
0.0324255
0.0321429
0.031952
0.03187
0.0353901
0.0358738
0.0363757
0.0368615
0.0373028
0.0376879
0.0380119
0.0382719
0.0384666
0.0385968
0.0386654
0.0386777
0.0386417
0.0385668
0.0384675
0.0383642
0.0382852
0.0382686
0.0383615
0.0385963
0.036293
0.0363829
0.036589
0.0368742
0.0371959
0.0375296
0.0378608
0.0381786
0.0384733
0.0387366
0.0389625
0.0391476
0.0392923
0.0394019
0.0394875
0.0395682
0.0396733
0.0398459
0.0401434
0.0406103
0.0364739
0.0366939
0.0369382
0.0372072
0.037484
0.0377579
0.0380232
0.0382746
0.0385065
0.0387131
0.0388892
0.0390312
0.0391386
0.0392151
0.0392699
0.0393202
0.0393945
0.0395365
0.0398086
0.040265
0.0365075
0.0368038
0.037119
0.0374449
0.0377641
0.0380654
0.038343
0.0385922
0.0388086
0.0389874
0.0391245
0.0392169
0.039264
0.0392688
0.0392396
0.0391917
0.0391513
0.0391599
0.0392801
0.0395716
0.0365099
0.0368254
0.0371691
0.0375295
0.0378865
0.0382264
0.0385403
0.0388211
0.0390625
0.0392584
0.0394034
0.0394934
0.0395265
0.0395043
0.0394331
0.0393257
0.039205
0.0391082
0.0390947
0.0392238
0.0365081
0.0368267
0.0371777
0.0375495
0.0379223
0.0382819
0.0386186
0.0389239
0.03919
0.0394095
0.0395755
0.0396825
0.039727
0.0397091
0.0396329
0.0395089
0.039357
0.0392106
0.0391249
0.0391568
0.0365069
0.0368258
0.0371781
0.0375525
0.0379297
0.0382957
0.038641
0.0389567
0.0392346
0.0394667
0.0396456
0.0397649
0.0398204
0.039811
0.0397398
0.0396159
0.0394574
0.0392955
0.0391832
0.0391751
0.0365069
0.0368258
0.0371781
0.0375525
0.0379297
0.0382957
0.038641
0.0389567
0.0392346
0.0394667
0.0396456
0.0397649
0.0398204
0.039811
0.0397398
0.0396159
0.0394574
0.0392955
0.0391832
0.0391751
0.0365081
0.0368267
0.0371777
0.0375495
0.0379223
0.038282
0.0386186
0.0389239
0.03919
0.0394095
0.0395755
0.0396825
0.039727
0.0397091
0.0396329
0.0395089
0.0393571
0.0392106
0.0391249
0.0391568
0.0365099
0.0368254
0.0371691
0.0375295
0.0378865
0.0382264
0.0385403
0.0388211
0.0390625
0.0392584
0.0394034
0.0394934
0.0395265
0.0395044
0.0394331
0.0393257
0.0392049
0.0391081
0.0390945
0.0392236
0.0365075
0.0368038
0.037119
0.0374449
0.037764
0.0380654
0.0383429
0.0385922
0.0388085
0.0389873
0.0391245
0.0392168
0.0392639
0.0392688
0.0392395
0.0391916
0.0391512
0.0391597
0.0392799
0.0395713
0.0364738
0.0366938
0.0369382
0.0372073
0.037484
0.0377579
0.038023
0.0382744
0.0385062
0.0387128
0.0388889
0.0390309
0.0391384
0.0392148
0.0392696
0.03932
0.0393942
0.0395362
0.0398083
0.0402647
0.036293
0.0363826
0.0365888
0.0368741
0.0371958
0.0375295
0.0378607
0.0381785
0.0384731
0.0387363
0.0389622
0.0391473
0.039292
0.0394017
0.0394874
0.0395681
0.0396732
0.0398459
0.0401435
0.0406105
0.0353901
0.0358732
0.0363751
0.036861
0.0373024
0.0376876
0.0380117
0.0382717
0.0384665
0.0385967
0.0386654
0.0386777
0.0386418
0.0385671
0.038468
0.0383648
0.038286
0.0382694
0.0383625
0.0385975
0.0340272
0.0348197
0.0354254
0.0358126
0.0360019
0.0360293
0.0359289
0.0357297
0.0354558
0.0351271
0.0347594
0.034366
0.033959
0.0335511
0.0331513
0.0327696
0.0324252
0.0321428
0.0319522
0.0318705
0.029256
0.0283063
0.0275505
0.0268801
0.0262614
0.0256775
0.0251185
0.0245794
0.0240579
0.023553
0.0230642
0.022592
0.0221376
0.0217035
0.0212911
0.0208971
0.0205297
0.0201986
0.0199165
0.0196903
0.00278655
0.00285909
0.00293298
0.00300715
0.00308008
0.00315068
0.00321829
0.00328259
0.00334339
0.00340054
0.00345389
0.00350337
0.00354896
0.00359065
0.00362851
0.00366271
0.00369312
0.0037196
0.0037421
0.0037607
0.00278821
0.00286096
0.0029352
0.00300997
0.00308379
0.00315558
0.00322473
0.00329091
0.00335389
0.00341349
0.00346952
0.00352187
0.00357051
0.00361543
0.00365666
0.00369422
0.00372827
0.00375911
0.00378693
0.00381209
0.0292772
0.0283356
0.0275968
0.0269544
0.0263728
0.0258325
0.0253211
0.0248313
0.0243592
0.0239024
0.0234598
0.0230313
0.022618
0.0222225
0.0218485
0.0215007
0.0211824
0.0208935
0.0206451
0.0204438
0.0340632
0.0348955
0.0355635
0.0360301
0.0363081
0.0364263
0.036414
0.0362975
0.0360999
0.0358407
0.0355367
0.0352018
0.0348495
0.0344928
0.0341456
0.0338242
0.033538
0.0333068
0.0331544
0.0330955
0.0354724
0.0360652
0.0366728
0.0372515
0.0377729
0.038227
0.0386112
0.0389255
0.0391722
0.0393547
0.0394781
0.0395491
0.039577
0.0395738
0.0395552
0.0395382
0.0395476
0.0396156
0.0397794
0.0400649
0.0365333
0.0367762
0.0370454
0.0373431
0.0376538
0.037968
0.0382812
0.0385892
0.0388873
0.0391703
0.039434
0.0396756
0.0398957
0.0400986
0.040294
0.0404983
0.0407366
0.0410447
0.0414666
0.0420368
0.0373315
0.0373175
0.0373826
0.0375111
0.0376752
0.0378581
0.0380521
0.038253
0.0384568
0.0386597
0.0388576
0.0390476
0.0392292
0.0394053
0.039584
0.0397803
0.0400189
0.0403363
0.0407808
0.0413945
0.0374811
0.0375868
0.0377011
0.0378341
0.0379758
0.0381188
0.0382599
0.0383978
0.0385307
0.0386559
0.0387706
0.038872
0.0389596
0.0390358
0.0391081
0.0391903
0.0393061
0.0394915
0.0397965
0.0402692
0.0375059
0.037674
0.0378471
0.0380282
0.038207
0.0383758
0.0385312
0.0386714
0.0387949
0.0388993
0.0389816
0.0390391
0.0390706
0.0390778
0.0390665
0.0390491
0.0390471
0.0390945
0.0392401
0.039535
0.0375071
0.0376908
0.0378868
0.0380949
0.038303
0.0385016
0.0386852
0.0388501
0.0389929
0.0391102
0.0391977
0.0392518
0.0392701
0.0392529
0.0392045
0.0391356
0.0390652
0.0390248
0.0390614
0.0392263
0.0375059
0.0376923
0.0378941
0.0381108
0.0383302
0.0385425
0.0387412
0.0389218
0.0390797
0.0392105
0.039309
0.0393705
0.0393916
0.0393717
0.039314
0.0392278
0.0391307
0.0390527
0.0390391
0.0391409
0.0375059
0.0376923
0.0378941
0.0381108
0.0383302
0.0385425
0.0387412
0.0389218
0.0390797
0.0392105
0.039309
0.0393705
0.0393916
0.0393717
0.039314
0.0392278
0.0391307
0.0390527
0.039039
0.0391409
0.0375071
0.0376908
0.0378868
0.0380949
0.038303
0.0385016
0.0386852
0.0388501
0.038993
0.0391102
0.0391978
0.0392519
0.0392701
0.0392529
0.0392045
0.0391356
0.0390652
0.0390248
0.0390613
0.0392262
0.0375059
0.037674
0.0378471
0.0380282
0.0382069
0.0383757
0.0385311
0.0386713
0.0387948
0.0388992
0.0389816
0.0390391
0.0390706
0.0390777
0.0390664
0.039049
0.039047
0.0390943
0.0392398
0.0395347
0.0374811
0.0375868
0.0377012
0.0378342
0.0379759
0.0381187
0.0382599
0.0383977
0.0385305
0.0386558
0.0387703
0.0388718
0.0389593
0.0390356
0.0391078
0.0391901
0.0393058
0.0394912
0.0397961
0.0402687
0.0373315
0.0373173
0.0373824
0.037511
0.0376752
0.037858
0.038052
0.0382528
0.0384566
0.0386594
0.0388573
0.0390473
0.0392288
0.0394049
0.0395836
0.0397799
0.0400185
0.0403359
0.0407803
0.041394
0.0365333
0.0367757
0.0370448
0.0373426
0.0376534
0.0379677
0.0382809
0.038589
0.038887
0.0391701
0.0394338
0.0396754
0.0398954
0.0400984
0.0402938
0.0404981
0.0407365
0.0410446
0.0414666
0.042037
0.0354724
0.0360645
0.0366721
0.0372508
0.0377724
0.0382266
0.0386108
0.0389253
0.039172
0.0393545
0.039478
0.0395492
0.0395771
0.039574
0.0395556
0.0395387
0.0395482
0.0396163
0.0397802
0.0400659
0.0340633
0.0348946
0.0355626
0.0360294
0.0363074
0.0364256
0.0364133
0.0362966
0.0360988
0.0358396
0.0355355
0.0352007
0.0348484
0.0344918
0.0341447
0.0338234
0.0335374
0.0333065
0.0331544
0.0330958
0.0292774
0.0283342
0.0275956
0.0269542
0.0263736
0.0258341
0.0253234
0.0248342
0.0243625
0.0239059
0.0234635
0.023035
0.0226218
0.0222263
0.0218521
0.0215042
0.0211858
0.0208969
0.0206484
0.0204471
0.00278822
0.00286083
0.00293497
0.00300967
0.00308344
0.00315522
0.00322437
0.00329056
0.00335356
0.00341317
0.00346923
0.00352161
0.00357028
0.00361524
0.0036565
0.00369409
0.00372816
0.00375903
0.00378689
0.00381208
0.00279014
0.00286294
0.00293733
0.00301238
0.00308662
0.00315901
0.00322894
0.00329608
0.00336024
0.00342123
0.0034789
0.00353314
0.00358393
0.00363132
0.00367537
0.00371615
0.00375377
0.00378869
0.00382131
0.00385208
0.0292983
0.0283563
0.0276199
0.0269852
0.0264166
0.0258941
0.0254048
0.0249406
0.0244968
0.0240706
0.0236599
0.0232642
0.0228842
0.0225222
0.0221815
0.021867
0.0215847
0.0213342
0.0211217
0.0209538
0.034089
0.0349272
0.0356111
0.0361053
0.0364216
0.0365866
0.0366269
0.0365665
0.0364267
0.036226
0.0359798
0.0357019
0.0354051
0.0351025
0.0348076
0.0345355
0.0343035
0.0341217
0.0340094
0.0339807
0.0355071
0.0361273
0.0367781
0.037412
0.0379971
0.038519
0.038972
0.0393543
0.039667
0.0399138
0.0401002
0.0402336
0.0403239
0.0403839
0.0404298
0.0404811
0.0405597
0.0406918
0.0409081
0.0412323
0.0366039
0.0369326
0.0372859
0.0376578
0.0380329
0.0384026
0.0387633
0.0391128
0.0394489
0.0397695
0.040073
0.0403591
0.0406303
0.0408926
0.0411566
0.0414384
0.0417601
0.0421521
0.0426503
0.0432843
0.0375415
0.0376673
0.0378032
0.0379614
0.0381334
0.0383131
0.038499
0.0386915
0.0388903
0.0390947
0.0393036
0.0395165
0.0397347
0.0399629
0.0402102
0.0404913
0.0408284
0.0412528
0.0418035
0.0425159
0.0382498
0.0381903
0.0381881
0.0382351
0.0383098
0.0383981
0.0384937
0.038594
0.0386977
0.0388041
0.0389121
0.0390215
0.0391338
0.0392537
0.03939
0.0395575
0.0397785
0.0400852
0.0405189
0.0411205
0.0383766
0.0384241
0.0384726
0.0385342
0.038602
0.0386693
0.0387331
0.0387921
0.0388462
0.0388946
0.0389362
0.0389706
0.0389985
0.0390238
0.0390545
0.0391043
0.0391949
0.0393578
0.0396351
0.0400715
0.0383962
0.0384962
0.0385943
0.0386966
0.0387962
0.0388863
0.0389635
0.0390264
0.0390744
0.0391071
0.0391234
0.0391224
0.0391045
0.0390731
0.0390352
0.0390037
0.0389993
0.0390527
0.0392061
0.039506
0.0383975
0.0385104
0.0386264
0.0387489
0.0388696
0.03898
0.0390751
0.0391522
0.0392095
0.039246
0.03926
0.0392503
0.0392171
0.0391629
0.0390947
0.0390247
0.038973
0.03897
0.0390577
0.0392838
0.0383975
0.0385104
0.0386264
0.0387489
0.0388695
0.03898
0.0390751
0.0391522
0.0392096
0.039246
0.0392601
0.0392504
0.0392171
0.0391629
0.0390947
0.0390247
0.038973
0.0389699
0.0390576
0.0392837
0.0383962
0.0384962
0.0385943
0.0386966
0.0387962
0.0388863
0.0389634
0.0390263
0.0390744
0.0391071
0.0391234
0.0391223
0.0391045
0.039073
0.0390351
0.0390037
0.0389992
0.0390526
0.0392059
0.0395058
0.0383766
0.0384241
0.0384726
0.0385343
0.0386021
0.0386693
0.038733
0.0387921
0.0388461
0.0388944
0.0389361
0.0389704
0.0389983
0.0390236
0.0390543
0.0391041
0.0391947
0.0393575
0.0396348
0.040071
0.0382498
0.0381901
0.038188
0.038235
0.0383097
0.0383981
0.0384936
0.0385939
0.0386976
0.0388039
0.0389118
0.0390212
0.0391335
0.0392534
0.0393897
0.0395572
0.0397781
0.0400847
0.0405183
0.0411199
0.0375415
0.0376668
0.0378027
0.037961
0.038133
0.0383127
0.0384988
0.0386912
0.03889
0.0390944
0.0393033
0.0395161
0.0397343
0.0399625
0.0402098
0.0404909
0.0408279
0.0412523
0.0418029
0.0425153
0.0366039
0.0369321
0.0372852
0.0376572
0.0380324
0.0384022
0.038763
0.0391125
0.0394486
0.0397692
0.0400727
0.0403588
0.0406299
0.0408923
0.0411564
0.0414381
0.0417599
0.0421519
0.0426502
0.0432843
0.035507
0.0361266
0.0367774
0.0374114
0.0379964
0.0385185
0.0389716
0.0393539
0.0396667
0.0399136
0.0401
0.0402335
0.0403239
0.0403841
0.04043
0.0404814
0.0405602
0.0406923
0.0409088
0.0412331
0.0340891
0.0349263
0.0356102
0.0361046
0.0364209
0.0365858
0.036626
0.0365655
0.0364256
0.0362248
0.0359786
0.0357006
0.0354039
0.0351014
0.0348066
0.0345346
0.0343028
0.0341213
0.0340093
0.0339808
0.0292985
0.0283548
0.0276188
0.026985
0.0264173
0.0258957
0.0254071
0.0249435
0.0245001
0.024074
0.0236634
0.0232678
0.0228879
0.0225258
0.022185
0.0218704
0.0215879
0.0213373
0.0211247
0.0209568
0.00279015
0.00286281
0.00293709
0.00301208
0.00308628
0.00315866
0.00322858
0.00329573
0.00335991
0.00342092
0.00347862
0.00353289
0.00358372
0.00363114
0.00367522
0.00371604
0.00375369
0.00378864
0.00382128
0.00385209
0.00279228
0.00286515
0.00293969
0.00301497
0.00308956
0.00316239
0.0032329
0.00330076
0.00336583
0.00342792
0.00348689
0.00354266
0.00359525
0.00364473
0.0036912
0.00373479
0.00377565
0.003814
0.00385052
0.00388578
0.0293212
0.0283782
0.0276418
0.0270089
0.0264446
0.0259289
0.0254489
0.0249967
0.0245675
0.0241583
0.023767
0.023393
0.0230368
0.0227003
0.0223868
0.0221006
0.0218473
0.0216336
0.0214579
0.0213258
0.0341157
0.0349544
0.0356416
0.0361439
0.0364736
0.0366574
0.0367218
0.0366904
0.0365837
0.0364197
0.0362133
0.0359774
0.0357244
0.0354668
0.0352173
0.0349898
0.0347997
0.0346637
0.0345923
0.0345983
0.0355356
0.0361603
0.0368225
0.0374762
0.0380892
0.0386467
0.0391417
0.0395711
0.0399349
0.0402359
0.0404787
0.0406703
0.0408202
0.0409407
0.0410472
0.0411583
0.0412957
0.0414842
0.0417471
0.0421083
0.036639
0.036989
0.0373754
0.037789
0.0382125
0.0386349
0.0390505
0.0394558
0.0398479
0.0402247
0.0405851
0.0409292
0.0412602
0.0415849
0.0419139
0.042263
0.0426529
0.0431094
0.0436635