/*--------------------------------*- C++ -*----------------------------------*\
  =========                 |
  \\      /  F ield         | OpenFOAM: The Open Source CFD Toolbox
   \\    /   O peration     | Website:  https://openfoam.org
    \\  /    A nd           | Version:  10
     \\/     M anipulation  |
\*---------------------------------------------------------------------------*/
FoamFile
{
    format      ascii;
    class       volScalarField;
    location    "100";
    object      epsilon;
}
// * * * * * * * * * * * * * * * * * * * * * * * * * * * * * * * * * * * * * //

dimensions      [0 2 -3 0 0 0 0];

internalField   nonuniform List<scalar> 
112000
(
1.56744e+06
1.6212e+06
1.67799e+06
1.73725e+06
1.798e+06
1.85989e+06
1.92292e+06
1.98725e+06
2.05303e+06
2.12046e+06
2.18975e+06
2.26127e+06
2.33548e+06
2.41293e+06
2.49432e+06
2.58045e+06
2.67229e+06
2.77082e+06
2.87962e+06
2.97553e+06
1.61983e+06
1.73188e+06
1.8451e+06
1.95936e+06
2.07397e+06
2.18857e+06
2.30312e+06
2.41767e+06
2.53234e+06
2.64725e+06
2.76256e+06
2.87862e+06
2.99588e+06
3.115e+06
3.23683e+06
3.36249e+06
3.49364e+06
3.63276e+06
3.7889e+06
3.94034e+06
1.62664e+06
1.75521e+06
1.88971e+06
2.02791e+06
2.16809e+06
2.30906e+06
2.45009e+06
2.59079e+06
2.73095e+06
2.87049e+06
3.00942e+06
3.14794e+06
3.28642e+06
3.42544e+06
3.56579e+06
3.70856e+06
3.85536e+06
4.00865e+06
4.17855e+06
4.34022e+06
1.62806e+06
1.76116e+06
1.90397e+06
2.05385e+06
2.20852e+06
2.3662e+06
2.52553e+06
2.68551e+06
2.84539e+06
3.00461e+06
3.16279e+06
3.31982e+06
3.47582e+06
3.63115e+06
3.78642e+06
3.94249e+06
4.10069e+06
4.26295e+06
4.43895e+06
4.59852e+06
1.62818e+06
1.76194e+06
1.90653e+06
2.05946e+06
2.21849e+06
2.38187e+06
2.54819e+06
2.71636e+06
2.88546e+06
3.05475e+06
3.22372e+06
3.39207e+06
3.5598e+06
3.72711e+06
3.89445e+06
4.06254e+06
4.23249e+06
4.4058e+06
4.59168e+06
4.75577e+06
1.62815e+06
1.76188e+06
1.9067e+06
2.06031e+06
2.22063e+06
2.38607e+06
2.55535e+06
2.72741e+06
2.90136e+06
3.07643e+06
3.25201e+06
3.42773e+06
3.60346e+06
3.77931e+06
3.95562e+06
4.133e+06
4.31244e+06
4.49529e+06
4.69063e+06
4.86123e+06
1.62813e+06
1.7618e+06
1.90657e+06
2.06022e+06
2.22071e+06
2.38649e+06
2.55634e+06
2.72929e+06
2.90447e+06
3.08118e+06
3.25886e+06
3.43717e+06
3.61602e+06
3.79554e+06
3.97612e+06
4.1584e+06
4.34343e+06
4.53259e+06
4.73512e+06
4.91259e+06
1.62813e+06
1.76175e+06
1.90646e+06
2.06007e+06
2.22055e+06
2.38635e+06
2.5563e+06
2.72946e+06
2.90502e+06
3.08228e+06
3.26074e+06
3.44008e+06
3.62025e+06
3.80141e+06
3.98397e+06
4.16864e+06
4.3565e+06
4.549e+06
4.7556e+06
4.93733e+06
1.62812e+06
1.76172e+06
1.90641e+06
2.05998e+06
2.22042e+06
2.38618e+06
2.55611e+06
2.72926e+06
2.90482e+06
3.08215e+06
3.26072e+06
3.44026e+06
3.62073e+06
3.80233e+06
3.9855e+06
4.17098e+06
4.35991e+06
4.55382e+06
4.76232e+06
4.94632e+06
1.62812e+06
1.76171e+06
1.90638e+06
2.05994e+06
2.22035e+06
2.3861e+06
2.556e+06
2.72913e+06
2.90468e+06
3.082e+06
3.26059e+06
3.44017e+06
3.62072e+06
3.80244e+06
3.98579e+06
4.17152e+06
4.36082e+06
4.55522e+06
4.76441e+06
4.94929e+06
1.62812e+06
1.76171e+06
1.90638e+06
2.05994e+06
2.22036e+06
2.3861e+06
2.55601e+06
2.72913e+06
2.90468e+06
3.082e+06
3.26059e+06
3.44018e+06
3.62073e+06
3.80245e+06
3.9858e+06
4.17154e+06
4.36084e+06
4.55525e+06
4.76444e+06
4.94932e+06
1.62812e+06
1.76172e+06
1.90641e+06
2.05998e+06
2.22042e+06
2.38619e+06
2.55612e+06
2.72926e+06
2.90484e+06
3.08216e+06
3.26074e+06
3.44028e+06
3.62075e+06
3.80236e+06
3.98553e+06
4.17101e+06
4.35995e+06
4.55387e+06
4.76237e+06
4.94638e+06
1.62813e+06
1.76175e+06
1.90647e+06
2.06008e+06
2.22055e+06
2.38636e+06
2.55631e+06
2.72947e+06
2.90503e+06
3.0823e+06
3.26076e+06
3.4401e+06
3.62027e+06
3.80144e+06
3.98401e+06
4.16868e+06
4.35655e+06
4.54907e+06
4.75568e+06
4.93742e+06
1.62813e+06
1.7618e+06
1.90657e+06
2.06023e+06
2.22072e+06
2.3865e+06
2.55636e+06
2.7293e+06
2.90449e+06
3.08121e+06
3.25889e+06
3.4372e+06
3.61606e+06
3.79559e+06
3.97618e+06
4.15847e+06
4.34351e+06
4.53268e+06
4.73523e+06
4.91271e+06
1.62815e+06
1.76189e+06
1.9067e+06
2.06032e+06
2.22064e+06
2.38608e+06
2.55536e+06
2.72743e+06
2.90139e+06
3.07646e+06
3.25204e+06
3.42777e+06
3.60351e+06
3.77937e+06
3.95569e+06
4.13308e+06
4.31254e+06
4.4954e+06
4.69076e+06
4.86138e+06
1.62818e+06
1.76194e+06
1.90653e+06
2.05947e+06
2.2185e+06
2.38188e+06
2.54821e+06
2.71639e+06
2.88549e+06
3.05479e+06
3.22377e+06
3.39213e+06
3.55987e+06
3.72719e+06
3.89455e+06
4.06266e+06
4.23262e+06
4.40595e+06
4.59186e+06
4.75596e+06
1.62806e+06
1.76116e+06
1.90397e+06
2.05386e+06
2.20853e+06
2.36621e+06
2.52555e+06
2.68554e+06
2.84544e+06
3.00466e+06
3.16285e+06
3.3199e+06
3.47591e+06
3.63126e+06
3.78654e+06
3.94262e+06
4.10084e+06
4.26312e+06
4.43915e+06
4.59874e+06
1.62664e+06
1.75521e+06
1.88971e+06
2.02793e+06
2.16811e+06
2.30908e+06
2.45012e+06
2.59084e+06
2.73102e+06
2.87057e+06
3.00952e+06
3.14806e+06
3.28656e+06
3.42561e+06
3.56598e+06
3.70877e+06
3.8556e+06
4.00891e+06
4.17883e+06
4.34053e+06
1.61983e+06
1.73187e+06
1.8451e+06
1.9594e+06
2.07405e+06
2.18869e+06
2.30326e+06
2.41786e+06
2.53257e+06
2.64751e+06
2.76286e+06
2.87896e+06
2.99626e+06
3.11542e+06
3.23728e+06
3.36297e+06
3.49416e+06
3.63331e+06
3.78949e+06
3.94098e+06
1.56744e+06
1.62116e+06
1.67794e+06
1.73717e+06
1.79792e+06
1.85979e+06
1.92281e+06
1.98713e+06
2.0529e+06
2.12031e+06
2.1896e+06
2.2611e+06
2.33529e+06
2.41273e+06
2.4941e+06
2.58022e+06
2.67205e+06
2.77057e+06
2.87937e+06
2.97529e+06
1.61918e+06
1.72952e+06
1.83999e+06
1.95047e+06
2.06024e+06
2.1689e+06
2.27638e+06
2.38271e+06
2.48806e+06
2.59281e+06
2.69708e+06
2.80115e+06
2.90542e+06
3.0105e+06
3.11713e+06
3.22624e+06
3.33893e+06
3.4564e+06
3.5815e+06
3.70577e+06
383826
502332
606598
701607
789908
872445
949623
1.02173e+06
1.08904e+06
1.15192e+06
1.21048e+06
1.26491e+06
1.31551e+06
1.36278e+06
1.4075e+06
1.45101e+06
1.4957e+06
1.54585e+06
1.61425e+06
1.70824e+06
360162
464739
558043
642502
720074
791754
858024
919190
975481
1.02706e+06
1.07404e+06
1.11651e+06
1.15464e+06
1.18868e+06
1.2191e+06
1.24678e+06
1.27338e+06
1.30212e+06
1.34417e+06
1.40557e+06
362751
472544
572937
665145
750276
828858
901096
967125
1.02708e+06
1.08106e+06
1.12915e+06
1.17141e+06
1.20793e+06
1.23886e+06
1.26453e+06
1.28551e+06
1.30299e+06
1.31928e+06
1.34425e+06
1.38108e+06
363651
474946
578473
675488
766707
852246
931950
1.00562e+06
1.07311e+06
1.13425e+06
1.18891e+06
1.23697e+06
1.27834e+06
1.31302e+06
1.34112e+06
1.36295e+06
1.37932e+06
1.39183e+06
1.40948e+06
1.43247e+06
363852
475199
579130
677169
770087
857988
940690
1.01794e+06
1.0895e+06
1.15509e+06
1.21445e+06
1.26731e+06
1.31344e+06
1.35269e+06
1.38498e+06
1.41042e+06
1.42953e+06
1.44343e+06
1.4607e+06
1.47931e+06
363946
475258
579180
677396
770757
859403
943179
1.02185e+06
1.09518e+06
1.16289e+06
1.22467e+06
1.28022e+06
1.32926e+06
1.37155e+06
1.40696e+06
1.43548e+06
1.45752e+06
1.47397e+06
1.49323e+06
1.51194e+06
364002
475295
579162
677348
770749
859521
943526
1.02255e+06
1.09638e+06
1.16474e+06
1.22736e+06
1.28393e+06
1.33416e+06
1.37782e+06
1.41475e+06
1.44495e+06
1.46877e+06
1.48704e+06
1.50818e+06
1.52815e+06
364033
475322
579155
677307
770694
859485
943542
1.02267e+06
1.09664e+06
1.16523e+06
1.22814e+06
1.28508e+06
1.33579e+06
1.38003e+06
1.41765e+06
1.44865e+06
1.47339e+06
1.49268e+06
1.51501e+06
1.53605e+06
364048
475336
579155
677290
770664
859450
943512
1.02265e+06
1.09665e+06
1.16529e+06
1.22827e+06
1.28531e+06
1.33615e+06
1.38057e+06
1.41841e+06
1.44969e+06
1.47476e+06
1.49446e+06
1.5173e+06
1.53886e+06
364048
475336
579155
677290
770665
859451
943512
1.02265e+06
1.09665e+06
1.16529e+06
1.22827e+06
1.28531e+06
1.33615e+06
1.38057e+06
1.41841e+06
1.44969e+06
1.47476e+06
1.49446e+06
1.5173e+06
1.53887e+06
364033
475322
579155
677308
770695
859486
943543
1.02267e+06
1.09664e+06
1.16523e+06
1.22814e+06
1.28508e+06
1.33579e+06
1.38003e+06
1.41765e+06
1.44865e+06
1.47339e+06
1.49269e+06
1.51502e+06
1.53606e+06
364002
475295
579162
677349
770750
859523
943527
1.02255e+06
1.09638e+06
1.16475e+06
1.22736e+06
1.28393e+06
1.33416e+06
1.37783e+06
1.41476e+06
1.44496e+06
1.46878e+06
1.48705e+06
1.50819e+06
1.52817e+06
363946
475258
579181
677397
770758
859405
943182
1.02186e+06
1.09519e+06
1.16289e+06
1.22468e+06
1.28023e+06
1.32926e+06
1.37156e+06
1.40697e+06
1.4355e+06
1.45754e+06
1.47399e+06
1.49326e+06
1.51197e+06
363852
475199
579130
677171
770089
857992
940695
1.01795e+06
1.0895e+06
1.1551e+06
1.21446e+06
1.26732e+06
1.31346e+06
1.35271e+06
1.385e+06
1.41044e+06
1.42955e+06
1.44346e+06
1.46073e+06
1.47934e+06
363651
474946
578473
675489
766709
852250
931955
1.00563e+06
1.07312e+06
1.13426e+06
1.18893e+06
1.23699e+06
1.27836e+06
1.31304e+06
1.34114e+06
1.36298e+06
1.37935e+06
1.39185e+06
1.40951e+06
1.4325e+06
362751
472543
572936
665144
750276
828858
901097
967128
1.02708e+06
1.08107e+06
1.12916e+06
1.17142e+06
1.20794e+06
1.23888e+06
1.26455e+06
1.28552e+06
1.30301e+06
1.3193e+06
1.34427e+06
1.38109e+06
360161
464737
558041
642501
720075
791757
858030
919198
975490
1.02707e+06
1.07405e+06
1.11653e+06
1.15466e+06
1.1887e+06
1.21913e+06
1.2468e+06
1.27341e+06
1.30215e+06
1.3442e+06
1.40559e+06
383828
502306
606547
701535
789820
872348
949523
1.02163e+06
1.08895e+06
1.15183e+06
1.2104e+06
1.26484e+06
1.31545e+06
1.36272e+06
1.40745e+06
1.45097e+06
1.49567e+06
1.54583e+06
1.61424e+06
1.70824e+06
1.6192e+06
1.72927e+06
1.83956e+06
1.94991e+06
2.05959e+06
2.16819e+06
2.27563e+06
2.38193e+06
2.48726e+06
2.592e+06
2.69627e+06
2.80034e+06
2.90464e+06
3.00973e+06
3.11639e+06
3.22553e+06
3.33826e+06
3.45579e+06
3.58095e+06
3.7053e+06
1.62655e+06
1.75423e+06
1.88691e+06
2.0222e+06
2.15831e+06
2.29397e+06
2.42844e+06
2.56127e+06
2.69224e+06
2.82137e+06
2.94919e+06
3.07575e+06
3.20131e+06
3.32632e+06
3.45143e+06
3.57752e+06
3.70565e+06
3.83709e+06
3.97416e+06
4.11311e+06
362135
468607
564132
651166
731744
806946
877349
943368
1.00537e+06
1.0637e+06
1.11894e+06
1.17139e+06
1.2215e+06
1.26996e+06
1.31782e+06
1.36681e+06
1.41971e+06
1.4811e+06
1.55983e+06
1.65954e+06
327244
356224
391475
430179
470704
511911
552917
593067
631898
669143
704673
738411
770440
801064
830926
861213
894059
933165
986242
1.05788e+06
331779
361566
393996
427276
460615
493553
525687
556660
586171
613972
639876
663764
685621
705592
724073
741890
760633
783185
816074
863359
333636
366513
402643
439724
476560
512432
546795
579215
609353
636946
661789
683742
702749
718877
732386
743876
754568
766717
785977
815362
333957
367401
404773
443805
483135
521848
559224
594674
627721
657979
685131
708935
729232
745971
759273
769546
777726
785612
798275
817695
334024
367473
405018
444534
484691
524563
563402
600579
635564
667906
697214
723166
745515
764118
778985
790384
799062
806516
817482
833120
334056
367469
404982
444546
484871
525050
564346
602140
637906
671184
701568
728712
752336
772259
788437
801073
810817
819015
830252
845194
334075
367468
404943
444482
484819
525058
564470
602446
638469
672088
702902
730563
754790
775392
792314
805734
816271
825210
837086
852311
334084
367469
404925
444446
484775
525020
564453
602469
638558
672272
703215
731044
755480
776331
793543
807291
818184
827493
839744
855252
334084
367469
404925
444446
484776
525020
564453
602470
638558
672272
703216
731045
755480
776332
793543
807291
818185
827494
839745
855254
334075
367468
404943
444482
484820
525059
564470
602447
638470
672089
702903
730564
754792
775394
792316
805736
816274
825213
837089
852315
334056
367469
404983
444546
484872
525051
564347
602142
637908
671186
701571
728714
752340
772263
788441
801077
810822
819021
830259
845201
334024
367473
405019
444535
484693
524565
563404
600582
635568
667909
697218
723170
745520
764124
778991
790391
799069
806525
817491
833130
333957
367401
404773
443806
483137
521851
559228
594678
627726
657984
685137
708941
729238
745978
759280
769553
777733
785619
798281
817700
333636
366513
402643
439725
476561
512433
546796
579216
609354
636947
661790
683743
702750
718877
732385
743874
754564
766711
785968
815348
331778
361565
393995
427275
460613
493549
525681
556652
586160
613959
639860
663745
685601
705570
724049
741863
760603
783151
816034
863310
327245
356223
391480
430190
470722
511936
552948
593101
631934
669179
704707
738444
770471
801093
830951
861235
894074
933173
986240
1.05787e+06
362138
468582
564086
651104
731673
806871
877275
943299
1.0053e+06
1.06364e+06
1.11888e+06
1.17134e+06
1.22146e+06
1.26992e+06
1.31779e+06
1.36678e+06
1.41969e+06
1.48108e+06
1.55981e+06
1.65953e+06
1.62657e+06
1.75397e+06
1.88643e+06
2.02157e+06
2.15757e+06
2.29317e+06
2.42759e+06
2.5604e+06
2.69136e+06
2.82049e+06
2.94832e+06
3.07491e+06
3.20051e+06
3.32557e+06
3.45074e+06
3.57688e+06
3.70509e+06
3.83661e+06
3.97377e+06
4.11281e+06
1.62803e+06
1.76041e+06
1.90157e+06
2.0487e+06
2.19937e+06
2.35169e+06
2.50424e+06
2.65596e+06
2.80603e+06
2.95384e+06
3.09899e+06
3.24131e+06
3.38089e+06
3.51808e+06
3.65363e+06
3.78914e+06
3.92556e+06
4.06401e+06
4.20632e+06
4.35143e+06
364770
476589
579428
674614
763419
846554
924417
997366
1.06579e+06
1.13008e+06
1.19068e+06
1.24807e+06
1.3029e+06
1.35592e+06
1.40834e+06
1.46256e+06
1.52126e+06
1.58843e+06
1.67039e+06
1.7701e+06
332871
363558
397058
431687
466762
501921
536856
571301
605057
637998
670073
701301
731863
762258
793380
826511
863745
908445
966145
1.04065e+06
361968
370110
381630
395287
410415
426696
443863
461633
479732
497920
516004
533902
551634
569385
587620
607229
629794
657979
696434
748875
367128
378519
390864
403544
416344
429253
442238
455192
467963
480386
492307
503613
514272
524381
534247
544516
556399
571998
595211
629258
368467
382001
396813
411943
426940
441641
455921
469623
482569
494576
505473
515122
523447
530479
536416
541734
547383
555050
568076
589093
368687
382582
398123
414372
430791
447107
463092
478499
493065
506528
518641
529193
538030
545095
550481
554523
557974
562217
570216
584055
368734
382634
398267
414773
431635
448574
465346
481682
497290
511868
525125
536797
546673
554631
560682
565065
568395
571860
578193
589070
368755
382634
398246
414773
431722
448825
465846
482521
498558
513652
527503
539829
550398
559055
565775
570744
574506
578143
584262
594293
368764
382634
398227
414743
431699
448833
465912
482678
498844
514109
528172
540752
551609
560584
567636
572935
576996
580857
587079
596980
368764
382634
398227
414743
431699
448833
465913
482679
498845
514110
528173
540752
551610
560584
567637
572935
576996
580858
587080
596981
368755
382634
398246
414774
431723
448826
465847
482522
498559
513654
527504
539830
550399
559057
565777
570746
574509
578145
584264
594295
368734
382634
398267
414774
431636
448575
465348
481684
497292
511870
525127
536799
546676
554634
560686
565069
568399
571864
578196
589073
368687
382583
398124
414373
430792
447108
463094
478502
493068
506531
518645
529196
538034
545099
550484
554527
557977
562219
570218
584055
368467
382002
396813
411943
426941
441642
455922
469624
482570
494577
505474
515122
523448
530479
536415
541732
547380
555043
568067
589079
367128
378518
390864
403544
416343
429252
442236
455189
467959
480380
492299
503604
514261
524369
534232
544498
556377
571972
595178
629217
361968
370107
381626
395283
410411
426692
443857
461625
479722
497906
515987
533880
551607
569354
587584
607187
629746
657923
696368
748798
332872
363556
397061
431698
466782
501950
536893
571344
605105
638048
670123
701350
731911
762301
793416
826538
863762
908448
966132
1.04062e+06
364773
476563
579379
674548
763344
846473
924338
997293
1.06572e+06
1.13002e+06
1.19063e+06
1.24803e+06
1.30286e+06
1.3559e+06
1.40832e+06
1.46255e+06
1.52124e+06
1.58842e+06
1.67038e+06
1.7701e+06
1.62805e+06
1.76015e+06
1.90109e+06
2.04805e+06
2.1986e+06
2.35085e+06
2.50335e+06
2.65504e+06
2.8051e+06
2.95292e+06
3.09809e+06
3.24045e+06
3.3801e+06
3.51736e+06
3.65296e+06
3.78856e+06
3.92505e+06
4.0636e+06
4.20602e+06
4.35124e+06
1.62816e+06
1.76129e+06
1.90439e+06
2.05475e+06
2.20996e+06
2.3681e+06
2.52765e+06
2.68741e+06
2.84635e+06
3.00363e+06
3.15863e+06
3.31098e+06
3.46057e+06
3.6075e+06
3.75233e+06
3.89626e+06
4.03996e+06
4.18444e+06
4.33113e+06
4.48029e+06
365625
478974
585037
685178
780274
870635
956324
1.03741e+06
1.11405e+06
1.18647e+06
1.25495e+06
1.31993e+06
1.38199e+06
1.442e+06
1.50119e+06
1.56155e+06
1.62549e+06
1.6965e+06
1.77934e+06
1.87666e+06
334905
368987
406650
445717
485135
524337
562929
600644
637330
672936
707508
741211
774363
807445
841389
877633
918148
965877
1.02499e+06
1.09847e+06
368215
380475
393831
407716
421974
436661
451816
467408
483371
499637
516165
532965
550163
568110
587384
608927
634269
665788
707020
760913
398245
399160
401920
406021
411062
416856
423290
430255
437639
445341
453286
461463
469935
478901
488762
500232
514509
533514
560215
597299
402698
406918
411379
415958
420547
425128
429700
434239
438694
442998
447096
450958
454621
458218
462050
466669
473033
482702
498184
521812
403691
409485
415731
422088
428305
434266
439903
445144
449907
454102
457644
460475
462587
464060
465109
466170
468022
471964
480165
494604
403848
409906
416659
423773
430941
437979
444749
451117
456942
462078
466385
469751
472110
473475
473983
473970
474083
475427
479939
489302
403877
409943
416767
424057
431520
438966
446247
453214
459702
465539
470554
474595
477555
479399
480204
480236
480047
480617
483731
490863
403887
409943
416761
424073
431597
439147
446581
453750
460488
466617
471957
476345
479655
481829
482920
483156
483046
483506
486248
492640
403887
409943
416761
424073
431597
439147
446581
453750
460488
466617
471958
476346
479655
481830
482921
483157
483046
483506
486249
492641
403877
409943
416767
424057
431520
438966
446248
453215
459703
465540
470555
474597
477557
479400
480206
480238
480049
480619
483732
490864
403848
409906
416660
423773
430942
437980
444750
451119
456944
462080
466387
469753
472112
473477
473986
473973
474085
475429
479939
489301
403691
409485
415732
422089
428305
434267
439904
445145
449909
454103
457645
460476
462588
464061
465110
466169
468020
471960
480159
494595
402698
406918
411379
415958
420547
425127
429700
434238
438692
442996
447092
450954
454615
458212
462042
466658
473020
482685
498163
521785
398245
399158
401917
406017
411059
416853
423287
430251
437634
445335
453278
461451
469921
478884
488741
500206
514478
533476
560169
597243
368215
380471
393825
407709
421966
436653
451807
467398
483360
499623
516147
532943
550136
568077
587344
608880
634212
665720
706941
760820
334906
368985
406652
445726
485153
524362
562963
600685
637375
672984
707556
741257
774408
807487
841422
877655
918158
965870
1.02497e+06
1.09843e+06
365628
478948
584987
685109
780194
870549
956238
1.03733e+06
1.11398e+06
1.1864e+06
1.25489e+06
1.31987e+06
1.38194e+06
1.44196e+06
1.50116e+06
1.56152e+06
1.62547e+06
1.69649e+06
1.77933e+06
1.87665e+06
1.62819e+06
1.76103e+06
1.9039e+06
2.0541e+06
2.20919e+06
2.36725e+06
2.52676e+06
2.68648e+06
2.84541e+06
3.00271e+06
3.15774e+06
3.31015e+06
3.4598e+06
3.60681e+06
3.75171e+06
3.89572e+06
4.03952e+06
4.1841e+06
4.3309e+06
4.48018e+06
1.62813e+06
1.76128e+06
1.90472e+06
2.05593e+06
2.21264e+06
2.37306e+06
2.53576e+06
2.69952e+06
2.86326e+06
3.02603e+06
3.18705e+06
3.34574e+06
3.50178e+06
3.65507e+06
3.80567e+06
3.95387e+06
4.10067e+06
4.24763e+06
4.39585e+06
4.54617e+06
365766
479128
585562
686697
783464
876168
964861
1.04958e+06
1.13042e+06
1.20752e+06
1.28109e+06
1.35146e+06
1.41914e+06
1.48491e+06
1.54985e+06
1.61549e+06
1.68396e+06
1.75861e+06
1.84321e+06
1.94032e+06
335216
369888
408852
449975
492055
534356
576355
617676
658088
697485
735879
773420
810429
847443
885285
925073
968811
1.01906e+06
1.07912e+06
1.15154e+06
369711
384352
400518
417320
434398
451701
469231
486971
504901
523014
541343
559992
579169
599234
620761
644769
672690
706607
749331
803322
403708
408658
413909
419396
425065
430963
437155
443686
450581
457858
465551
473734
482562
492325
503505
516847
533498
555172
584258
623015
432093
430096
429301
429408
430092
431174
432571
434239
436144
438266
440604
443205
446178
449740
454257
460330
468897
481382
499816
526216
435881
436835
437785
438723
439562
440264
440828
441259
441556
441708
441715
441599
441442
441406
441787
443075
446056
451934
462468
479436
436659
438855
441202
443525
445638
447433
448862
449895
450505
450664
450346
449550
448321
446780
445162
443876
443598
445374
450771
461375
436776
439184
441926
444821
447640
450223
452470
454305
455658
456457
456637
456155
455014
453285
451149
448949
447275
447065
449752
456784
436794
439216
442021
445054
448085
450950
453537
455755
457517
458727
459298
459161
458289
456723
454607
452243
450174
449273
450906
456440
436794
439216
442022
445054
448085
450950
453537
455756
457517
458728
459299
459162
458290
456724
454607
452244
450174
449273
450906
456440
436776
439184
441926
444821
447640
450223
452471
454306
455659
456458
456638
456157
455015
453287
451151
448951
447277
447065
449752
456783
436659
438855
441202
443525
445638
447434
448862
449895
450506
450664
450346
449551
448322
446781
445162
443876
443597
445373
450768
461369
435881
436835
437785
438723
439562
440264
440828
441259
441555
441708
441713
441598
441440
441403
441783
443070
446049
451926
462456
479420
432093
430094
429298
429405
430090
431171
432569
434236
436141
438262
440599
443199
446171
449731
454246
460317
468880
481360
499788
526182
403708
408653
413902
419388
425057
430955
437147
443679
450574
457849
465541
473721
482547
492306
503482
516819
533462
555129
584205
622951
369711
384347
400510
417310
434387
451689
469218
486957
504885
522995
541320
559964
579137
599196
620717
644715
672626
706531
749242
803218
335217
369886
408853
449983
492069
534379
576384
617711
658126
697524
735918
773457
810464
847473
885307
925086
968809
1.01904e+06
1.07908e+06
1.15149e+06
365769
479102
585511
686628
783383
876080
964773
1.0495e+06
1.13034e+06
1.20744e+06
1.28102e+06
1.35139e+06
1.41909e+06
1.48487e+06
1.54982e+06
1.61546e+06
1.68394e+06
1.75859e+06
1.84319e+06
1.94031e+06
1.62816e+06
1.76102e+06
1.90423e+06
2.05528e+06
2.21187e+06
2.37222e+06
2.53487e+06
2.69861e+06
2.86235e+06
3.02513e+06
3.18618e+06
3.34493e+06
3.50105e+06
3.65441e+06
3.8051e+06
3.9534e+06
4.10029e+06
4.24736e+06
4.39569e+06
4.54612e+06
1.62811e+06
1.76123e+06
1.90471e+06
2.05613e+06
2.21324e+06
2.37429e+06
2.5379e+06
2.7029e+06
2.86823e+06
3.03294e+06
3.19622e+06
3.35748e+06
3.51634e+06
3.67259e+06
3.82621e+06
3.97735e+06
4.12633e+06
4.2747e+06
4.42359e+06
4.57399e+06
365817
479125
585560
686918
784221
877814
967782
1.05418e+06
1.13712e+06
1.21674e+06
1.29321e+06
1.36684e+06
1.43809e+06
1.50767e+06
1.57658e+06
1.64618e+06
1.71836e+06
1.79586e+06
1.88196e+06
1.97935e+06
335263
369931
409079
450717
493684
537240
580846
624107
666763
708670
749802
790269
830348
870526
911553
954518
1.0009e+06
1.05305e+06
1.1137e+06
1.18523e+06
369929
384951
401906
419942
438622
457806
477421
497395
517667
538203
559018
580205
601972
624681
648908
675492
705726
741443
784949
838439
404851
411584
418921
426588
434415
442379
450519
458879
467507
476456
485802
495670
506264
517898
531048
546456
565191
588754
619122
658287
436832
438446
440087
441801
443548
445335
447212
449239
451470
453961
456781
460033
463883
468599
474591
482461
493096
507766
528171
556101
463224
459674
457030
455076
453549
452284
451202
450269
449470
448806
448299
448009
448058
448653
450128
452994
458010
466275
479282
498644
466503
465562
464551
463494
462327
461008
459527
457891
456105
454178
452127
449998
447885
445961
444512
443983
445049
448692
456268
469273
467137
467222
467356
467425
467284
466840
466046
464881
463332
461392
459063
456371
453390
450267
447253
444752
443384
444065
448069
456826
467227
467494
467947
468455
468832
468942
468696
468036
466916
465302
463168
460520
457408
453958
450396
447103
444667
443969
446248
452904
467227
467494
467948
468455
468833
468942
468696
468036
466917
465302
463169
460520
457409
453958
450397
447103
444668
443970
446248
452903
467137
467222
467357
467425
467284
466841
466047
464881
463333
461393
459063
456371
453390
450267
447253
444752
443384
444063
448066
456822
466503
465562
464551
463494
462327
461008
459528
457891
456105
454178
452127
449997
447884
445960
444510
443981
445045
448687
456262
469264
463224
459672
457028
455073
453546
452282
451200
450267
449468
448804
448297
448007
448054
448648
450123
452988
458002
466264
479267
498626
436832
438442
440081
441794
443540
445328
447206
449233
451464
453955
456775
460026
463875
468589
474579
482446
493077
507742
528141
556064
404851
411579
418913
426579
434404
442368
450508
458869
467497
476444
485788
495654
506245
517876
531022
546424
565152
588706
619063
658217
369929
384945
401898
419931
438610
457791
477405
497378
517647
538179
558990
580173
601934
624637
648857
675432
705655
741359
784851
838326
335264
369929
409079
450724
493697
537260
580873
624139
666798
708705
749836
790300
830376
870549
911567
954521
1.00089e+06
1.05302e+06
1.11365e+06
1.18517e+06
365820
479098
585508
686849
784139
877726
967693
1.0541e+06
1.13704e+06
1.21666e+06
1.29314e+06
1.36677e+06
1.43804e+06
1.50763e+06
1.57655e+06
1.64616e+06
1.71833e+06
1.79584e+06
1.88195e+06
1.97934e+06
1.62814e+06
1.76096e+06
1.90423e+06
2.05548e+06
2.21248e+06
2.37346e+06
2.53703e+06
2.70201e+06
2.86733e+06
3.03206e+06
3.19539e+06
3.35671e+06
3.51564e+06
3.67197e+06
3.82568e+06
3.97692e+06
4.12601e+06
4.27449e+06
4.42348e+06
4.57399e+06
1.6281e+06
1.7612e+06
1.90471e+06
2.05623e+06
2.21354e+06
2.3749e+06
2.53897e+06
2.7046e+06
2.87076e+06
3.0365e+06
3.201e+06
3.36366e+06
3.52403e+06
3.68188e+06
3.83709e+06
3.98972e+06
4.13996e+06
4.28821e+06
4.43621e+06
4.58513e+06
365843
479127
585537
686947
784429
878362
968856
1.05601e+06
1.13995e+06
1.22085e+06
1.29892e+06
1.37446e+06
1.44795e+06
1.52008e+06
1.59178e+06
1.66433e+06
1.7394e+06
1.81917e+06
1.90671e+06
2.0048e+06
335280
369909
409036
450754
493947
537898
582089
626143
669815
712967
755574
797735
839708
881947
925137
970261
1.01867e+06
1.07214e+06
1.13313e+06
1.20404e+06
369960
384978
402033
420354
439530
459419
479946
501033
522609
544630
567094
590077
613761
638479
664754
693360
725393
762329
806209
859103
405011
412025
419922
428445
437376
446636
456218
466131
476398
487055
498170
509862
522329
535882
550986
568307
588759
613675
644738
683817
437755
440801
444106
447560
451036
454496
457969
461517
465212
469132
473376
478078
483433
489728
497369
506932
519247
535435
556965
585522
467397
467061
466667
466287
465896
465489
465095
464761
464541
464489
464676
465205
466233
467997
470853
475308
482082
492171
506896
527803
492005
487477
483718
480547
477735
475131
472651
470260
467947
465721
463609
461679
460049
458924
458615
459583
462488
468258
478131
493583
494904
492709
490445
488134
485715
483140
480389
477463
474373
471140
467796
464404
461080
458016
455510
454005
454141
456820
463253
474904
495431
494095
492751
491293
489596
487576
485191
482431
479305
475836
472062
468050
463920
459867
456191
453334
451938
452904
457442
467028
495431
494095
492751
491293
489596
487576
485191
482431
479305
475836
472061
468049
463920
459867
456190
453334
451938
452903
457441
467026
494904
492709
490445
488135
485716
483140
480389
477463
474373
471140
467795
464403
461079
458015
455509
454003
454138
456817
463249
474899
492005
487475
483715
480544
477733
475129
472650
470259
467946
465720
463608
461677
460047
458922
458612
459579
462483
468252
478122
493572
467397
467057
466661
466280
465889
465482
465090
464757
464536
464485
464672
465201
466228
467992
470847
475301
482073
492159
506880
527784
437755
440796
444099
447551
451026
454486
457960
461509
465204
469124
473368
478068
483423
489716
497355
506916
519227
535409
556933
585483
405011
412020
419913
428435
437364
446624
456205
466119
476385
487041
498154
509843
522307
535857
550957
568271
588717
613623
644676
683744
369960
384973
402024
420343
439517
459404
479929
501014
522588
544605
567065
590042
613721
638432
664700
693296
725318
762240
806106
858986
335281
369906
409036
450761
493960
537918
582115
626174
669848
713000
755605
797763
839733
881965
925147
970258
1.01865e+06
1.07211e+06
1.13308e+06
1.20396e+06
365846
479100
585486
686877
784348
878273
968767
1.05592e+06
1.13987e+06
1.22078e+06
1.29885e+06
1.3744e+06
1.4479e+06
1.52003e+06
1.59175e+06
1.6643e+06
1.73938e+06
1.81916e+06
1.9067e+06
2.0048e+06
1.62812e+06
1.76094e+06
1.90423e+06
2.05559e+06
2.21278e+06
2.37407e+06
2.53811e+06
2.70372e+06
2.86988e+06
3.03564e+06
3.20019e+06
3.36291e+06
3.52337e+06
3.6813e+06
3.8366e+06
3.98933e+06
4.13967e+06
4.28804e+06
4.43615e+06
4.58518e+06
1.62809e+06
1.76119e+06
1.90474e+06
2.05635e+06
2.21382e+06
2.37542e+06
2.5398e+06
2.70582e+06
2.87247e+06
3.03878e+06
3.20394e+06
3.36732e+06
3.52846e+06
3.68708e+06
3.84301e+06
3.99624e+06
4.14686e+06
4.29515e+06
4.44157e+06
4.58814e+06
365852
479137
585562
687040
784686
878901
969821
1.05756e+06
1.14229e+06
1.2242e+06
1.30351e+06
1.38055e+06
1.4558e+06
1.52994e+06
1.60388e+06
1.6788e+06
1.75623e+06
1.83808e+06
1.92678e+06
2.02555e+06
335288
369898
409007
450747
494029
538159
582632
627092
671309
715166
758645
801851
845038
888637
933291
979893
1.02964e+06
1.0841e+06
1.14526e+06
1.21563e+06
369967
384958
401998
420363
439668
459787
480655
502208
524386
547150
570501
594508
619341
645306
672881
702758
735900
773598
817527
869782
405028
412042
420013
428738
438010
447751
457950
468614
479759
491415
503640
516539
530295
545194
561663
580304
601952
627729
659097
697942
437877
441151
444899
449015
453335
457781
462345
467062
471986
477184
482744
488797
495533
503230
512282
523236
536838
554091
576325
605256
468167
469033
470028
471094
472138
473120
474052
474982
475973
477100
478453
480157
482389
485409
489580
495404
503573
515017
530985
553085
495738
494098
492394
490688
488955
487178
485367
483556
481790
480126
478635
477423
476648
476547
477463
479878
484457
492110
504048
521846
518806
513574
509007
504927
501122
497446
493828
490239
486686
483197
479828
476671
473875
471675
470409
470563
472809
478062
487544
502845
521359
518101
514675
511103
507347
503387
499236
494927
490511
486049
481619
477333
473355
469929
467405
466281
467240
471216
479446
493544
521359
518101