/*--------------------------------*- C++ -*----------------------------------*\
  =========                 |
  \\      /  F ield         | OpenFOAM: The Open Source CFD Toolbox
   \\    /   O peration     | Website:  https://openfoam.org
    \\  /    A nd           | Version:  10
     \\/     M anipulation  |
\*---------------------------------------------------------------------------*/
FoamFile
{
    format      ascii;
    class       volScalarField;
    location    "100";
    object      k;
}
// * * * * * * * * * * * * * * * * * * * * * * * * * * * * * * * * * * * * * //

dimensions      [0 2 -2 0 0 0 0];

internalField   nonuniform List<scalar> 
112000
(
288.307
294.862
301.71
308.771
315.929
323.137
330.398
337.726
345.138
352.653
360.294
368.096
376.104
384.374
392.968
401.961
411.441
421.491
432.45
441.994
294.696
308.134
321.422
334.559
347.482
360.167
372.627
384.883
396.958
408.876
420.665
432.364
444.027
455.72
467.525
479.547
491.935
504.907
519.269
533.008
295.521
310.895
326.581
342.317
357.916
373.267
388.315
403.043
417.452
431.553
445.367
458.93
472.292
485.519
498.691
511.914
525.334
539.166
554.291
568.489
295.693
311.597
328.222
345.229
362.351
379.399
396.245
412.808
429.034
444.892
460.373
475.487
490.268
504.768
519.056
533.223
547.392
561.736
577.089
590.829
295.707
311.689
328.516
345.857
363.441
381.072
398.612
415.963
433.051
449.828
466.266
482.361
498.134
513.622
528.884
543.994
559.059
574.216
590.252
604.224
295.704
311.682
328.535
345.952
363.674
381.52
399.358
417.09
434.641
451.953
468.99
485.735
502.198
518.407
534.407
550.265
566.078
581.966
598.703
613.125
295.702
311.672
328.52
345.942
363.683
381.564
399.461
417.281
434.951
452.418
469.648
486.626
503.364
519.89
536.251
552.517
568.787
585.181
602.482
617.436
295.701
311.666
328.508
345.925
363.664
381.549
399.457
417.298
435.005
452.526
469.828
486.901
503.756
520.425
536.957
553.423
569.927
586.592
604.218
619.506
295.701
311.663
328.501
345.915
363.65
381.532
399.437
417.277
434.986
452.513
469.826
486.918
503.801
520.509
537.094
553.63
570.224
587.006
604.786
620.257
295.7
311.662
328.499
345.91
363.643
381.523
399.426
417.264
434.971
452.498
469.813
486.909
503.799
520.519
537.12
553.678
570.303
587.126
604.964
620.506
295.7
311.662
328.499
345.91
363.643
381.523
399.426
417.264
434.972
452.498
469.814
486.91
503.8
520.52
537.121
553.68
570.304
587.128
604.966
620.509
295.701
311.663
328.502
345.915
363.651
381.532
399.438
417.278
434.987
452.514
469.827
486.919
503.803
520.511
537.096
553.633
570.227
587.01
604.791
620.263
295.701
311.666
328.508
345.926
363.665
381.55
399.458
417.3
435.007
452.527
469.83
486.903
503.759
520.428
536.96
553.427
569.931
586.598
604.224
619.513
295.702
311.672
328.521
345.943
363.684
381.566
399.463
417.282
434.953
452.421
469.65
486.629
503.367
519.894
536.256
552.523
568.793
585.188
602.491
617.446
295.704
311.682
328.536
345.953
363.675
381.521
399.359
417.092
434.643
451.956
468.993
485.739
502.203
518.412
534.413
550.272
566.087
581.976
598.714
613.137
295.707
311.689
328.516
345.858
363.442
381.073
398.614
415.965
433.054
449.832
466.27
482.367
498.14
513.63
528.892
544.004
559.071
574.229
590.267
604.24
295.693
311.598
328.222
345.23
362.352
379.401
396.248
412.811
429.038
444.897
460.379
475.494
490.277
504.778
519.067
533.235
547.406
561.751
577.106
590.847
295.521
310.894
326.582
342.318
357.918
373.269
388.319
403.048
417.458
431.56
445.376
458.941
472.305
485.534
498.708
511.933
525.355
539.188
554.315
568.515
294.696
308.133
321.422
334.563
347.49
360.179
372.642
384.902
396.981
408.902
420.695
432.398
444.064
455.76
467.568
479.592
491.983
504.957
519.323
533.064
288.307
294.858
301.703
308.762
315.919
323.126
330.385
337.712
345.124
352.637
360.277
368.078
376.085
384.353
392.946
401.938
411.417
421.467
432.426
441.97
294.617
307.854
320.829
333.546
345.946
358.006
369.738
381.164
392.318
403.253
413.993
424.574
435.046
445.472
455.929
466.506
477.305
488.433
500.145
511.644
442.26
480.106
507.334
528.716
546.411
561.347
574.033
584.833
594.019
601.784
608.316
613.803
618.452
622.516
626.333
630.397
635.516
643.07
656.829
679.081
450.227
499.533
535.962
563.967
586.309
604.493
619.408
631.659
641.696
649.856
656.406
661.582
665.622
668.804
671.491
674.219
677.878
684.012
697.131
720.029
453.467
508.162
550.784
584.8
612.485
635.191
653.782
668.893
681.032
690.605
697.94
703.322
707.026
709.344
710.633
711.39
712.422
715.114
723.882
740.987
454.247
510.186
555.072
592.168
623.381
649.769
671.99
690.53
705.788
718.096
727.737
734.964
740.029
743.197
744.786
745.228
745.211
745.885
751.37
762.97
454.409
510.424
555.667
593.519
625.85
653.66
677.544
697.926
715.133
729.431
741.035
750.141
756.943
761.654
764.531
765.933
766.444
767.03
771.588
780.616
454.48
510.47
555.726
593.725
626.366
654.649
679.167
700.333
718.461
733.794
746.522
756.811
764.825
770.746
774.795
777.291
778.759
780.065
785
793.53
454.521
510.492
555.713
593.704
626.388
654.77
679.447
700.84
719.268
734.976
748.153
758.96
767.555
774.112
778.842
782.049
784.239
786.241
791.823
800.684
454.544
510.508
555.705
593.676
626.357
654.756
679.472
700.929
719.451
735.286
748.628
759.639
768.48
775.324
780.384
783.962
786.564
789.011
795.08
804.351
454.555
510.516
555.702
593.663
626.337
654.735
679.456
700.925
719.467
735.334
748.719
759.79
768.708
775.647
780.824
784.541
787.307
789.946
796.247
805.748
454.555
510.516
555.703
593.663
626.337
654.735
679.457
700.925
719.467
735.334
748.72
759.79
768.708
775.647
780.824
784.542
787.307
789.947
796.247
805.749
454.544
510.508
555.705
593.676
626.357
654.756
679.472
700.929
719.451
735.287
748.628
759.639
768.48
775.324
780.384
783.963
786.564
789.011
795.082
804.353
454.521
510.492
555.713
593.705
626.389
654.771
679.448
700.841
719.269
734.976
748.153
758.96
767.556
774.113
778.843
782.05
784.24
786.243
791.826
800.687
454.48
510.47
555.726
593.725
626.367
654.65
679.168
700.334
718.463
733.795
746.523
756.813
764.827
770.748
774.798
777.294
778.762
780.069
785.006
793.536
454.409
510.424
555.667
593.52
625.852
653.661
677.546
697.928
715.136
729.434
741.038
750.144
756.947
761.658
764.536
765.938
766.449
767.037
771.596
780.624
454.246
510.186
555.072
592.169
623.382
649.771
671.993
690.533
705.792
718.101
727.742
734.97
740.034
743.203
744.793
745.235
745.218
745.892
751.378
762.978
453.467
508.161
550.784
584.799
612.485
635.191
653.782
668.894
681.034
690.608
697.944
703.327
707.032
709.352
710.641
711.399
712.432
715.123
723.891
740.995
450.227
499.529
535.959
563.966
586.308
604.493
619.407
631.659
641.696
649.856
656.407
661.584
665.626
668.81
671.499
674.228
677.888
684.024
697.144
720.042
442.263
480.084
507.304
528.685
546.384
561.327
574.02
584.829
594.023
601.795
608.335
613.83
618.486
622.558
626.38
630.45
635.574
643.134
656.899
679.157
294.619
307.826
320.78
333.484
345.875
357.93
369.658
381.083
392.236
403.171
413.912
424.495
434.969
445.398
455.859
466.439
477.243
488.376
500.095
511.601
295.51
310.78
326.259
341.674
356.838
371.64
386.025
399.977
413.498
426.616
439.405
451.888
464.104
476.108
487.972
499.784
511.647
523.673
536.068
548.487
451.665
502.006
539.434
568.438
591.812
611.088
627.18
640.717
652.174
661.896
670.127
677.154
683.281
688.863
694.351
700.372
707.873
718.324
734.471
757.306
460.305
481.573
504.972
528.168
550.175
570.526
588.995
605.523
620.162
633.032
644.292
654.14
662.841
670.748
678.363
686.444
696.193
709.546
730.246
760.184
466.542
491.521
516.236
539.284
560.314
579.298
596.266
611.277
624.419
635.801
645.55
653.823
660.828
666.861
672.363
678.032
685.024
695.263
712.71
739.628
468.466
496.502
524.685
551.125
575.151
596.581
615.395
631.658
645.485
657.022
666.428
673.882
679.597
683.849
687.033
689.756
693.033
698.564
710.108
729.729
468.808
497.455
526.842
555.03
581.139
604.791
625.815
644.161
659.862
672.996
683.674
692.033
698.247
702.545
705.253
706.881
708.288
710.919
718.234
731.827
468.878
497.556
527.149
555.82
582.686
607.326
629.522
649.174
666.259
680.8
692.855
702.507
709.878
715.142
718.562
720.565
721.886
723.779
729.465
740.067
468.909
497.558
527.138
555.878
582.923
607.858
630.466
650.641
668.352
683.61
696.449
706.932
715.152
721.254
725.463
728.157
730.006
732.153
737.692
747.429
468.926
497.557
527.106
555.832
582.902
607.905
630.629
650.973
668.911
684.454
697.637
708.517
717.182
723.766
728.483
731.691
734.032
736.601
742.441
752.183
468.934
497.558
527.09
555.802
582.869
607.883
630.632
651.019
669.02
684.649
697.945
708.964
717.796
724.573
729.505
732.949
735.537
738.348
744.412
754.291
468.934
497.558
527.09
555.803
582.869
607.883
630.632
651.019
669.02
684.649
697.945
708.964
717.796
724.573
729.505
732.949
735.537
738.348
744.413
754.292
468.926
497.557
527.106
555.832
582.902
607.906
630.629
650.974
668.912
684.455
697.638
708.518
717.183
723.767
728.483
731.692
734.034
736.603
742.443
752.185
468.909
497.558
527.138
555.878
582.924
607.859
630.467
650.642
668.354
683.611
696.451
706.933
715.154
721.256
725.465
728.159
730.009
732.156
737.695
747.432
468.878
497.556
527.15
555.821
582.687
607.328
629.524
649.176
666.261
680.802
692.857
702.509
709.881
715.146
718.566
720.568
721.89
723.783
729.469
740.071
468.808
497.455
526.842
555.031
581.141
604.793
625.817
644.164
659.865
672.999
683.677
692.037
698.251
702.549
705.257
706.885
708.291
710.922
718.236
731.828
468.466
496.502
524.685
551.125
575.152
596.581
615.396
631.658
645.486
657.023
666.429
673.883
679.598
683.85
687.033
689.756
693.032
698.562
710.104
729.723
466.542
491.52
516.236
539.284
560.313
579.295
596.261
611.27
624.411
635.792
645.541
653.814
660.819
666.853
672.356
678.025
685.017
695.255
712.701
739.617
460.306
481.57
504.972
528.174
550.185
570.538
589.009
605.536
620.175
633.043
644.301
654.149
662.849
670.756
678.371
686.451
696.2
709.552
730.251
760.188
451.668
501.981
539.402
568.411
591.795
611.083
627.187
640.737
652.204
661.936
670.174
677.208
683.342
688.929
694.422
700.446
707.951
718.404
734.554
757.393
295.513
310.749
326.205
341.605
356.759
371.554
385.937
399.888
413.41
426.529
439.321
451.808
464.028
476.039
487.908
499.727
511.596
523.63
536.034
548.462
295.689
311.509
327.947
344.652
361.35
377.847
394.017
409.775
425.069
439.868
454.162
467.962
481.303
494.237
506.851
519.307
531.696
544.123
556.751
569.481
454.955
510.795
554.569
589.802
618.836
643.081
663.451
680.638
695.2
707.601
718.232
727.456
735.648
743.218
750.637
758.476
767.647
779.443
795.788
817.47
467.535
493.233
518.708
542.62
564.673
584.88
603.299
620.013
635.136
648.806
661.188
672.477
682.941
692.957
703.058
714.014
726.987
743.722
766.921
798.112
495.663
503.812
514.874
527.356
540.43
553.678
566.805
579.565
591.768
603.289
614.067
624.126
633.582
642.68
651.853
661.823
673.76
689.509
712.08
743.534
500.85
512.107
524.011
535.897
547.49
558.721
569.52
579.786
589.408
598.289
606.366
613.627
620.14
626.084
631.807
637.928
645.494
656.213
673.045
698.207
502.186
515.5
529.646
543.65
557.05
569.677
581.422
592.178
601.846
610.342
617.612
623.644
628.487
632.281
635.31
638.086
641.502
647.042
657.441
674.764
502.419
516.128
531.013
546.085
560.779
574.811
587.976
600.088
610.979
620.51
628.577
635.119
640.137
643.714
646.059
647.584
649.035
651.675
657.988
669.731
502.468
516.2
531.204
546.556
561.7
576.334
590.23
603.17
614.953
625.402
634.372
641.759
647.516
651.675
654.385
655.975
657.084
658.813
663.456
672.478
502.488
516.205
531.199
546.587
561.834
576.647
590.799
604.072
616.262
627.183
636.675
644.617
650.94
655.649
658.856
660.848
662.198
663.916
668.181
676.266
502.496
516.205
531.184
546.566
561.828
576.68
590.898
604.27
616.593
627.682
637.377
645.552
652.132
657.113
660.595
662.846
664.414
666.269
670.543
678.415
502.496
516.205
531.184
546.566
561.828
576.68
590.898
604.27
616.593
627.682
637.377
645.552
652.133
657.114
660.596
662.847
664.414
666.269
670.544
678.416
502.488
516.205
531.199
546.587
561.835
576.648
590.799
604.072
616.263
627.184
636.676
644.618
650.941
655.65
658.857
660.849
662.199
663.917
668.183
676.267
502.468
516.201
531.204
546.556
561.7
576.335
590.231
603.171
614.955
625.404
634.374
641.761
647.518
651.678
654.387
655.978
657.086
658.816
663.458
672.479
502.419
516.128
531.013
546.085
560.78
574.812
587.978
600.09
610.982
620.513
628.58
635.122
640.139
643.716
646.062
647.586
649.036
651.676
657.989
669.729
502.186
515.5
529.646
543.65
557.05
569.677
581.422
592.179
601.846
610.342
617.612
623.644
628.487
632.281
635.309
638.084
641.499
647.037
657.434
674.755
500.85
512.107
524.011
535.897
547.49
558.72
569.518
579.783
589.403
598.283
606.359
613.62
620.132
626.075
631.798
637.917
645.481
656.199
673.028
698.186
495.663
503.809
514.871
527.354
540.427
553.675
566.8
579.559
591.76
603.279
614.056
624.113
633.568
642.665
651.837
661.805
673.741
689.488
712.056
743.508
467.536
493.227
518.704
542.624
564.683
584.894
603.316
620.032
635.154
648.824
661.204
672.492
682.954
692.968
703.067
714.021
726.991
743.725
766.92
798.109
454.959
510.769
554.535
589.773
618.817
643.074
663.459
680.658
695.232
707.642
718.281
727.512
735.71
743.285
750.708
758.55
767.724
779.522
795.869
817.554
295.692
311.478
327.892
344.58
361.267
377.759
393.925
409.682
424.977
439.778
454.076
467.882
481.229
494.17
506.791
519.255
531.651
544.088
556.725
569.464
295.705
311.612
328.27
345.33
362.508
379.602
396.468
413.002
429.13
444.796
459.97
474.644
488.835
502.577
515.939
529.049
541.978
554.823
567.713
580.673
455.706
512.825
558.932
597.34
630.016
658.081
682.258
703.103
721.094
736.648
750.143
761.951
772.466
782.132
791.438
800.948
811.501
824.196
840.444
860.909
469.634
498.674
528.011
555.82
581.496
604.918
626.122
645.229
662.415
677.895
691.911
704.746
716.741
728.312
740.023
752.646
767.249
785.317
808.817
838.901
501.838
513.864
526.63
539.507
552.257
564.847
577.245
589.384
601.194
612.622
623.657
634.345
644.826
655.384
666.47
678.788
693.419
711.961
736.638
769.024
528.315
529.992
533.585
538.513
544.319
550.749
557.631
564.804
572.122
579.459
586.726
593.9
601.037
608.316
616.089
624.969
635.951
650.569
671.072
699.265
532.654
537.326
542.27
547.385
552.557
557.745
562.914
568.007
572.949
577.658
582.07
586.154
589.945
593.579
597.341
601.747
607.666
616.477
630.302
650.973
533.636
539.821
546.407
553.082
559.614
565.886
571.82
577.337
582.35
586.771
590.524
593.564
595.901
597.627
598.965
600.34
602.493
606.621
614.663
628.319
533.801
540.276
547.383
554.796
562.22
569.466
576.392
582.858
588.73
593.872
598.167
601.525
603.911
605.364
606.042
606.284
606.716
608.376
613.023
622.17
533.832
540.329
547.526
555.134
562.864
570.519
577.939
584.968
591.444
597.206
602.105
606.018
608.871
610.66
611.491
611.64
611.648
612.439
615.64
622.603
533.842
540.332
547.531
555.17
562.972
570.742
578.324
585.558
592.281
598.323
603.525
607.75
610.906
612.97
614.021
614.303
614.313
614.92
617.682
623.862
533.842
540.332
547.531
555.171
562.972
570.743
578.324
585.558
592.281
598.324
603.525
607.751
610.907
612.971
614.022
614.303
614.314
614.921
617.683
623.862
533.832
540.33
547.526
555.134
562.865
570.519
577.94
584.969
591.445
597.207
602.106
606.019
608.872
610.661
611.492
611.642
611.649
612.44
615.641
622.603
533.801
540.276
547.383
554.797
562.221
569.467
576.393
582.86
588.731
593.874
598.168
601.527
603.913
605.366
606.044
606.286
606.717
608.377
613.023
622.169
533.636
539.821
546.408
553.083
559.614
565.886
571.821
577.338
582.351
586.771
590.524
593.565
595.901
597.627
598.964
600.339
602.491
606.618
614.658
628.311
532.654
537.326
542.271
547.385
552.558
557.745
562.913
568.005
572.946
577.655
582.065
586.149
589.94
593.573
597.334
601.739
607.656
616.464
630.287
650.954
528.315
529.989
533.582
538.511
544.317
550.747
557.628
564.801
572.118
579.453
586.719
593.891
601.026
608.303
616.074
624.952
635.932
650.546
671.045
699.235
501.838
513.857
526.622
539.499
552.25
564.84
577.238
589.377
601.186
612.613
623.647
634.333
644.812
655.368
666.451
678.767
693.395
711.934
736.606
768.989
469.635
498.666
528.006
555.821
581.503
604.929
626.137
645.244
662.431
677.91
691.925
704.758
716.751
728.321
740.029
752.65
767.249
785.314
808.811
838.891
455.709
512.798
558.897
597.309
629.995
658.072
682.261
703.119
721.121
736.684
750.187
762.001
772.522
782.193
791.503
801.017
811.572
824.269
840.519
860.986
295.708
311.582
328.215
345.258
362.426
379.513
396.376
412.91
429.038
444.707
459.886
474.566
488.764
502.513
515.883
529.001
541.939
554.794
567.694
580.663
295.702
311.611
328.307
345.461
362.801
380.132
397.314
414.242
430.828
447.005
462.724
477.96
492.709
506.985
520.818
534.253
547.396
560.396
573.358
586.354
455.825
513.003
559.461
598.621
632.415
661.906
687.764
710.489
730.502
748.165
763.807
777.76
790.384
802.091
813.367
824.803
837.079
851.056
867.839
888.079
469.973
499.655
530.265
559.929
587.843
613.707
637.431
659.049
678.683
696.518
712.785
727.77
741.823
755.384
769.014
783.411
799.532
818.63
842.214
871.27
503.331
517.646
532.978
548.399
563.506
578.2
592.446
606.217
619.496
632.293
644.661
656.712
668.64
680.749
693.489
707.557
723.926
743.943
769.309
801.303
533.551
538.87
544.511
550.419
556.53
562.851
569.399
576.168
583.134
590.273
597.579
605.088
612.91
621.269
630.548
641.342
654.553
671.493
693.897
723.223
557.836
556.843
557.093
558.267
560.046
562.247
564.777
567.574
570.59
573.784
577.138
580.671
584.467
588.703
593.697
599.969
608.334
620.006
636.654
659.803
561.474
563.153
564.852
566.592
568.311
569.975
571.577
573.11
574.56
575.902
577.12
578.225
579.276
580.416
581.909
584.202
588.014
594.435
605.019
621.259
562.237
565.106
568.096
571.07
573.879
576.435
578.696
580.635
582.22
583.417
584.194
584.541
584.491
584.146
583.72
583.593
584.39
587.085
593.107
603.868
562.36
565.461
568.855
572.389
575.865
579.144
582.134
584.765
586.968
588.671
589.809
590.337
590.25
589.612
588.585
587.487
586.871
587.613
591.04
598.477
562.379
565.504
568.976
572.658
576.353
579.912
583.231
586.221
588.795
590.861
592.331
593.136
593.246
592.695
591.616
590.289
589.222
589.235
591.598
597.577
562.379
565.504
568.976
572.658
576.354
579.912
583.231
586.222
588.796
590.862
592.331
593.136
593.246
592.696
591.616
590.289
589.222
589.235
591.599
597.577
562.36
565.461
568.856
572.39
575.866
579.144
582.135
584.766
586.969
588.672
589.81
590.338
590.252
589.613
588.586
587.488
586.871
587.613
591.04
598.475
562.237
565.106
568.097
571.071
573.879
576.435
578.696
580.635
582.221
583.418
584.195
584.541
584.491
584.146
583.72
583.592
584.389
587.082
593.103
603.862
561.474
563.153
564.852
566.593
568.311
569.975
571.577
573.11
574.558
575.9
577.118
578.222
579.273
580.413
581.905
584.197
588.007
594.427
605.008
621.245
557.836
556.84
557.09
558.264
560.044
562.245
564.775
567.572
570.587
573.781
577.132
580.665
584.46
588.694
593.687
599.957
608.32
619.989
636.634
659.779
533.551
538.864
544.503
550.411
556.523
562.844
569.393
576.162
583.128
590.266
597.571
605.078
612.898
621.255
630.532
641.322
654.53
671.466
693.866
723.187
503.331
517.638
532.968
548.388
563.495
578.189
592.436
606.207
619.485
632.281
644.648
656.696
668.623
680.729
693.467
707.532
723.897
743.91
769.272
801.262
469.974
499.647
530.26
559.929
587.847
613.715
637.442
659.06
678.693
696.527
712.792
727.775
741.827
755.386
769.013
783.407
799.525
818.618
842.199
871.253
455.829
512.976
559.425
598.59
632.392
661.895
687.765
710.503
730.527
748.197
763.847
777.806
790.435
802.147
813.425
824.863
837.142
851.12
867.905
888.148
295.705
311.581
328.252
345.39
362.719
380.044
397.224
414.151
430.738
446.918
462.643
477.885
492.642
506.926
520.767
534.211
547.363
560.373
573.344
586.35
295.699
311.605
328.307
345.484
362.866
380.263
397.538
414.587
431.326
447.684
463.612
479.078
494.073
508.604
522.69
536.365
549.677
562.776
575.768
588.746
455.865
513.009
559.491
598.828
632.979
663.009
689.581
713.188
734.234
753.063
769.98
785.291
799.328
812.471
825.17
837.964
851.51
866.511
883.859
904.236
470.026
499.736
530.567
560.748
589.474
616.407
641.416
664.493
685.722
705.246
723.263
740.025
755.854
771.159
786.455
802.403
819.822
839.758
863.431
891.781
503.567
518.305
534.444
551.051
567.63
583.98
599.992
615.583
630.701
645.336
659.529
673.387
687.104
700.985
715.473
731.179
748.955
769.942
795.503
826.779
534.681
541.717
549.283
557.127
565.083
573.11
581.214
589.406
597.693
606.093
614.643
623.426
632.591
642.384
653.179
665.548
680.303
698.552
721.683
750.959
562.299
564.552
566.854
569.272
571.786
574.403
577.161
580.099
583.251
586.648
590.333
594.378
598.914
604.158
610.451
618.301
628.449
641.94
660.122
684.305
584.342
582.037
580.632
579.903
579.603
579.577
579.749
580.081
580.557
581.171
581.937
582.903
584.17
585.922
588.454
592.222
597.904
606.469
619.199
637.406
587.45
587.492
587.464
587.415
587.303
587.098
586.789
586.376
585.86
585.24
584.525
583.749
582.99
582.402
582.241
582.914
585.039
589.516
597.562
610.472
588.067
589.086
590.115
591.072
591.846
592.366
592.594
592.512
592.108
591.372
590.3
588.91
587.263
585.488
583.81
582.601
582.433
584.156
588.939
598.062
588.161
589.374
590.725
592.105
593.362
594.381
595.087
595.428
595.366
594.867
593.906
592.485
590.646
588.498
586.248
584.245
583.036
583.44
586.605
593.801
588.161
589.374
590.725
592.105
593.362
594.381
595.087
595.429
595.367
594.867
593.907
592.485
590.646
588.498
586.249
584.245
583.036
583.44
586.605
593.8
588.067
589.086
590.116
591.072
591.846
592.366
592.593
592.511
592.108
591.372
590.3
588.91
587.263
585.488
583.81
582.6
582.432
584.154
588.936
598.058
587.45
587.492
587.465
587.416
587.304
587.099
586.789
586.376
585.859
585.239
584.524
583.747
582.988
582.4
582.238
582.91
585.035
589.511
597.555
610.463
584.342
582.034
580.629
579.901
579.601
579.576
579.747
580.08
580.555
581.169
581.935
582.899
584.166
585.917
588.448
592.215
597.896
606.458
619.185
637.39
562.299
564.547
566.846
569.265
571.779
574.397
577.156
580.094
583.246
586.642
590.327
594.371
598.906
604.148
610.44
618.288
628.434
641.921
660.099
684.278
534.68
541.709
549.274
557.117
565.073
573.1
581.205
589.397
597.684
606.083
614.632
623.413
632.577
642.368
653.161
665.527
680.278
698.522
721.648
750.919
503.567
518.296
534.433
551.04
567.618
583.967
599.979
615.569
630.687
645.321
659.512
673.368
687.083
700.962
715.447
731.149
748.921
769.903
795.46
826.732
470.027
499.728
530.561
560.747
589.478
616.414
641.424
664.502
685.729
705.252
723.267
740.027
755.854
771.156
786.45
802.393
819.809
839.741
863.411
891.757
455.869
512.982
559.455
598.796
632.957
662.998
689.582
713.201
734.257
753.094
770.018
785.334
799.376
812.524
825.226
838.02
851.567
866.57
883.92
904.298
295.702
311.574
328.252
345.413
362.785
380.176
397.449
414.498
431.238
447.6
463.533
479.006
494.009
508.548
522.643
536.328
549.649
562.757
575.759
588.746
295.697
311.602
328.307
345.495
362.898
380.328
397.65
414.761
431.579
448.034
464.074
479.665
494.794
509.461
523.681
537.478
550.888
563.961
576.864
589.704
455.884
513.009
559.477
598.85
633.112
663.334
690.186
714.17
735.696
755.111
772.72
788.823
803.743
817.846
831.553
845.359
859.856
875.742
893.704
914.441
470.042
499.722
530.552
560.83
589.78
617.071
642.575
666.284
688.277
708.69
727.706
745.559
762.55
779.055
795.549
812.619
830.997
851.576
875.365
903.307
503.602
518.358
534.627
551.548
568.631
585.666
602.527
619.113
635.355
651.221
666.732
681.973
697.116
712.435
728.33
745.354
764.245
785.933
811.573
842.261
534.852
542.203
550.349
559.036
568.039
577.258
586.651
596.195
605.877
615.7
625.694
635.938
646.579
657.857
670.13
683.912
699.892
719.025
742.474
771.427
563.2
566.827
570.671
574.65
578.671
582.707
586.787
590.961
595.284
599.816
604.629
609.826
615.563
622.073
629.692
638.896
650.363
664.991
683.921
708.381
588.209
588.768
589.27
589.805
590.368
590.96
591.606
592.345
593.217
594.269
595.555
597.162
599.223
601.947
605.645
610.764
617.932
628.009
642.104
661.454
608.335
605.281
602.959
601.182
599.742
598.497
597.372
596.331
595.363
594.473
593.686
593.06
592.703
592.799
593.631
595.619
599.363
605.697
615.709
630.648
611.048
610.073
609.009
607.898
606.701
605.381
603.921
602.319
600.581
598.721
596.767
594.771
592.836
591.136
589.941
589.661
590.885
594.437
601.408
613.071
611.555
611.385
611.155
610.79
610.196
609.313
608.109
606.58
604.736
602.595
600.192
597.585
594.881
592.253
589.976
588.456
588.285
590.291
595.574
605.432
611.555
611.385
611.156
610.79
610.196
609.312
608.108
606.579
604.735
602.595
600.191
597.585
594.88
592.253
589.975
588.455
588.284
590.29
595.573
605.431
611.048
610.073
609.009
607.899
606.702
605.382
603.921
602.318
600.58
598.72
596.765
594.769
592.834
591.134
589.939
589.659
590.882
594.433
601.403
613.065
608.335
605.279
602.956
601.18
599.741
598.496
597.371
596.33
595.362
594.471
593.684
593.057
592.7
592.795
593.627
595.614
599.358
605.69
615.7
630.637
588.209
588.763
589.263
589.798
590.361
590.954
591.601
592.34
593.213
594.265
595.551
597.157
599.218
601.942
605.638
610.756
617.922
627.997
642.09
661.436
563.2
566.82
570.662
574.641
578.662
582.699
586.779
590.953
595.277
599.809
604.621
609.817
615.553
622.063
629.68
638.882
650.346
664.971
683.897
708.353
534.852
542.195
550.34
559.025
568.028
577.247
586.64
596.185
605.866
615.688
625.681
635.923
646.563
657.838
670.109
683.888
699.864
718.992
742.436
771.384
503.602
518.35
534.617
551.536
568.619
585.653
602.513
619.099
635.339
651.204
666.713
681.952
697.093
712.409
728.301
745.321
764.207
785.891
811.527
842.211
470.043
499.714
530.546
560.829
589.783
617.078
642.583
666.292
688.283
708.694
727.707
745.558
762.547
779.051
795.541
812.607
830.98
851.555
875.34
903.279
455.888
512.982
559.441
598.818
633.089
663.323
690.187
714.182
735.719
755.142
772.757
788.865
803.79
817.897
831.606
845.413
859.91
875.796
893.76
914.499
295.7
311.571
328.252
345.424
362.817
380.242
397.561
414.673
431.493
447.952
463.997
479.595
494.732
509.409
523.637
537.443
550.863
563.947
576.859
589.707
295.696
311.601
328.31
345.509
362.929
380.383
397.736
414.886
431.751
448.259
464.358
480.013
495.208
509.941
524.22
538.063
551.5
564.57
577.33
589.963
455.891
513.015
559.488
598.895
633.237
663.593
690.635
714.873
736.723
756.537
774.625
791.285
806.839
821.642
836.098
850.668
865.889
882.383
900.854
921.944
470.049
499.713
530.529
560.83
589.861
617.3
643.025
667.035
689.414
710.303
729.883
748.383
766.091
783.364
800.64
818.452
837.448
858.401
882.216
909.852
503.609
518.344
534.611
551.59
568.817
586.089
603.285
620.311
637.096
653.609
669.861
685.927
701.959
718.205
735.024
752.905
772.488
794.584
820.18
850.387
534.873
542.24
550.485
559.395
568.754
578.457
588.453
598.711
609.205
619.929
630.9
642.182
653.903
666.28
679.638
694.433
711.285
731.002
754.596
783.277
563.331
567.211
571.513
576.146
580.974
585.928
591.001
596.217
601.618
607.252
613.187
619.522
626.41
634.078
642.85
653.174
665.655
681.092
700.509
725.166
588.953
590.656
592.44
594.274
596.092
597.871
599.629
601.411
603.273
605.28
607.511
610.074
613.125
616.888
621.683
627.95
636.285
647.483
662.578
682.85
611.742
611.234
610.643
610.047
609.439
608.808
608.167
607.541
606.97
606.502
606.2
606.157
606.517
607.494
609.398
612.664
617.888
625.873
637.663
654.562
630.259
626.708
623.757
621.232
618.94
616.756
614.614
612.489
610.388
608.339
606.39
604.628
603.19
602.289
602.238
603.478
606.62
612.484
622.14
636.924
632.613
630.779
628.748
626.564
624.214
621.692
619.013
616.205
613.311
610.384
607.492
604.732
602.252
600.271
599.111
599.224
601.232
605.974
614.539
628.29
632.613
630.779
628.748
626.564
624.215
621.693
619.013
616.205
613.311
610.384
607.491
604.731
602.251
600.27
599.11
599.222
601.23
605.972
614.537
628.288
630.259
626.706
623.755
621.23
618.939
616.755
614.613
612.488
610.387
608.337
606.388
604.626
603.188
602.287
602.235
603.475
606.616
612.48
622.135
636.919
611.742
611.229
610.636
610.041
609.433
608.803
608.162
607.537
606.967
606.498
606.196
606.154
606.513
607.49
609.393
612.659
617.882
625.866
637.655
654.552
588.953
590.65
592.432
594.265
596.084
597.864
599.622
601.404
603.267
605.274
607.505
610.068
613.118
616.881
621.676
627.941
636.275
647.471
662.563
682.832
563.331
567.205
571.504
576.136
580.964
585.918
590.991
596.208
601.609
607.243
613.177
619.511
626.398
634.066
642.837
653.158
665.636
681.07
700.483
725.137
534.873
542.233
550.475
559.384
568.743
578.445
588.442
598.699
609.194
619.916
630.886
642.165
653.885
666.26
679.615
694.407
711.255
730.967
754.556
783.233
503.609
518.336
534.6
551.579
568.805
586.076
603.271
620.296
637.08
653.591
669.841
685.905
701.935
718.178
734.994
752.871
772.448
794.54
820.131
850.334
470.05
499.705
530.523
560.829
589.864
617.307
643.033
667.043
689.421
710.307
729.884
748.382
766.087
783.358
800.631
818.439
837.429
858.378
882.188
909.821
455.895
512.988
559.452
598.863
633.215
663.581
690.636
714.885
736.746
756.568
774.661
791.327
806.885
821.693
836.151
850.721
865.941
882.436
900.908
922
295.699
311.57
328.256
345.438
362.849
380.297
397.648
414.799
431.665
448.177
464.282
479.945
495.148
509.89
524.178
538.031
551.478
564.558
577.327
589.968
295.695
311.601
328.316
345.525
362.963
380.439
397.821
415.006
431.91
448.463
464.609
480.313
495.554
510.327
524.635
538.491
551.914
564.933
577.587
589.933
455.888
513.019
559.515
598.972
633.399
663.88
691.092
715.549
737.672
757.818
776.298
793.414
809.483
824.855
839.917
855.103
870.906
887.885
906.682
928.079
470.048
499.71
530.532
560.86
589.954
617.495
643.366
667.571
690.2
711.396
731.342
750.264
768.443
786.223
804.015
822.311
841.694
862.849
886.587
913.935
503.606
518.329
534.591
551.59
568.875
586.249
603.598
620.83
637.883
654.726
671.371
687.887
704.415
721.187
738.531
756.892
776.842
799.098
824.557
854.396
534.87
542.225
550.475
559.433
568.895
578.76
588.984
599.535
610.392
621.545
633.007
644.835
657.147
670.143
684.123
699.508
716.861
736.916
760.621
789.257
563.34
567.239
571.624
576.43
581.522
586.824
592.322
598.031
603.984
610.224
616.811
623.838
631.452
639.875
649.42
660.519