/*--------------------------------*- C++ -*----------------------------------*\
  =========                 |
  \\      /  F ield         | OpenFOAM: The Open Source CFD Toolbox
   \\    /   O peration     | Website:  https://openfoam.org
    \\  /    A nd           | Version:  10
     \\/     M anipulation  |
\*---------------------------------------------------------------------------*/
FoamFile
{
    format      ascii;
    class       volScalarField;
    location    "100";
    object      nut;
}
// * * * * * * * * * * * * * * * * * * * * * * * * * * * * * * * * * * * * * //

dimensions      [0 2 -1 0 0 0 0];

internalField   nonuniform List<scalar> 
112000
(
0.00477267
0.00482663
0.00488236
0.00493917
0.0049961
0.00505277
0.00510923
0.00516558
0.00522195
0.00527847
0.00533533
0.00539277
0.0054511
0.00551068
0.00557192
0.00563529
0.00570131
0.00577046
0.00584494
0.00590896
0.00482527
0.00493407
0.00503934
0.0051413
0.00523966
0.00533444
0.00542593
0.00551444
0.00560027
0.0056837
0.00576504
0.00584464
0.00592294
0.0060004
0.00607761
0.00615523
0.00623419
0.0063158
0.00640494
0.00648897
0.00483201
0.00495611
0.00507961
0.00520056
0.00531774
0.00543058
0.00553898
0.00564305
0.00574303
0.00583921
0.00593192
0.00602155
0.00610858
0.00619352
0.00627697
0.00635963
0.00644242
0.00652663
0.00661747
0.00670154
0.00483341
0.0049617
0.00509235
0.00522262
0.00535057
0.005475
0.00559524
0.005711
0.00582215
0.00592877
0.00603103
0.00612922
0.00622376
0.00631513
0.00640388
0.00649067
0.00657632
0.00666188
0.00675224
0.00683201
0.00483353
0.00496242
0.00509462
0.00522736
0.0053586
0.00548705
0.00561192
0.00573277
0.00584934
0.00596156
0.0060695
0.00617336
0.00627349
0.00637027
0.00646422
0.0065559
0.00664604
0.00673549
0.00682883
0.00690904
0.0048335
0.00496237
0.00509477
0.00522807
0.00536032
0.00549026
0.00561716
0.00574052
0.00586005
0.00597562
0.00608719
0.00619491
0.00629903
0.00639987
0.00649788
0.00659358
0.00668763
0.00678079
0.00687755
0.00695976
0.00483348
0.00496229
0.00509465
0.005228
0.00536038
0.00549058
0.00561788
0.00574183
0.00586214
0.00597868
0.00609146
0.00620059
0.00630632
0.00640901
0.00650908
0.00660705
0.0067036
0.00679949
0.00689922
0.00698418
0.00483348
0.00496224
0.00509456
0.00522787
0.00536024
0.00549047
0.00561785
0.00574194
0.0058625
0.00597939
0.00609262
0.00620233
0.00630877
0.0064123
0.00651336
0.00661246
0.00671031
0.00680768
0.00690914
0.00699587
0.00483347
0.00496222
0.0050945
0.00522779
0.00536013
0.00549034
0.00561771
0.0057418
0.00586237
0.0059793
0.00609261
0.00620243
0.00630905
0.00641282
0.00651418
0.00661369
0.00671206
0.00681007
0.00691238
0.00700011
0.00483347
0.00496221
0.00509448
0.00522775
0.00536008
0.00549028
0.00561763
0.00574171
0.00586227
0.0059792
0.00609252
0.00620238
0.00630904
0.00641287
0.00651434
0.00661398
0.00671252
0.00681077
0.0069134
0.00700151
0.00483347
0.00496221
0.00509448
0.00522775
0.00536008
0.00549028
0.00561763
0.00574171
0.00586227
0.0059792
0.00609252
0.00620238
0.00630904
0.00641288
0.00651434
0.00661399
0.00671252
0.00681078
0.00691341
0.00700152
0.00483347
0.00496222
0.00509451
0.00522779
0.00536014
0.00549034
0.00561771
0.0057418
0.00586238
0.00597931
0.00609261
0.00620244
0.00630906
0.00641283
0.0065142
0.00661371
0.00671207
0.00681009
0.00691241
0.00700013
0.00483348
0.00496224
0.00509456
0.00522787
0.00536024
0.00549047
0.00561786
0.00574195
0.00586251
0.0059794
0.00609263
0.00620234
0.00630879
0.00641232
0.00651337
0.00661249
0.00671034
0.00680771
0.00690918
0.00699591
0.00483348
0.00496229
0.00509465
0.005228
0.00536038
0.00549059
0.00561789
0.00574184
0.00586215
0.0059787
0.00609147
0.0062006
0.00630634
0.00640903
0.0065091
0.00660708
0.00670364
0.00679953
0.00689926
0.00698423
0.0048335
0.00496237
0.00509477
0.00522808
0.00536032
0.00549027
0.00561717
0.00574053
0.00586007
0.00597563
0.00608721
0.00619494
0.00629905
0.0063999
0.00649792
0.00659362
0.00668767
0.00678084
0.00687761
0.00695982
0.00483353
0.00496243
0.00509462
0.00522737
0.00535861
0.00548706
0.00561193
0.00573278
0.00584936
0.00596158
0.00606952
0.0061734
0.00627352
0.00637032
0.00646427
0.00655596
0.0066461
0.00673556
0.00682891
0.00690913
0.00483341
0.0049617
0.00509235
0.00522262
0.00535058
0.00547501
0.00559526
0.00571102
0.00582218
0.0059288
0.00603106
0.00612927
0.00622381
0.00631519
0.00640394
0.00649074
0.0065764
0.00666196
0.00675234
0.00683211
0.00483201
0.00495611
0.00507962
0.00520057
0.00531775
0.0054306
0.005539
0.00564308
0.00574307
0.00583926
0.00593197
0.00602162
0.00610866
0.00619361
0.00627707
0.00635973
0.00644254
0.00652676
0.00661761
0.00670168
0.00482527
0.00493406
0.00503935
0.00514133
0.00523971
0.00533453
0.00542604
0.00551457
0.00560043
0.00568388
0.00576523
0.00584485
0.00592317
0.00600065
0.00607787
0.0061555
0.00623448
0.0063161
0.00640525
0.00648929
0.00477267
0.0048266
0.00488231
0.00493911
0.00499602
0.0050527
0.00510914
0.00516548
0.00522185
0.00527836
0.00533521
0.00539264
0.00545097
0.00551054
0.00557177
0.00563514
0.00570115
0.00577031
0.00584478
0.00590881
0.00482462
0.00493183
0.00503469
0.00513352
0.00522808
0.00531844
0.00540489
0.00548777
0.00556748
0.00564453
0.00571918
0.00579179
0.00586277
0.0059326
0.00600181
0.006071
0.00614083
0.00621195
0.00628593
0.00635768
0.045863
0.0412977
0.0381883
0.0358586
0.0340177
0.0325063
0.0312295
0.0301281
0.0291607
0.0282944
0.0275133
0.0268065
0.0261673
0.0255929
0.0250845
0.024649
0.0243025
0.0240764
0.0240535
0.0242961
0.0506533
0.0483238
0.0463279
0.0445529
0.0429653
0.041537
0.0402436
0.0390664
0.0379912
0.0370068
0.0361051
0.0352814
0.0345343
0.0338669
0.0332876
0.0328138
0.0324777
0.0323383
0.0325399
0.0331963
0.0510182
0.0491818
0.0476539
0.0462744
0.045
0.0438099
0.0426911
0.0416364
0.0406419
0.0397054
0.0388262
0.0380051
0.0372454
0.0365538
0.0359421
0.035431
0.0350571
0.0348865
0.0350831
0.0357804
0.0510671
0.0493237
0.0479355
0.0467213
0.0456163
0.0445857
0.0436089
0.0426748
0.041778
0.0409165
0.0400905
0.0393021
0.038556
0.0378597
0.0372253
0.0366725
0.0362355
0.035975
0.0360488
0.0365741
0.0510755
0.0493434
0.0479839
0.0468182
0.0457766
0.0448193
0.0439209
0.0430663
0.0422465
0.0414568
0.0406951
0.0399619
0.0392606
0.0385974
0.0379829
0.0374348
0.0369836
0.0366834
0.036682
0.037073
0.0510782
0.0493461
0.0479899
0.046835
0.0458123
0.0448811
0.0440151
0.0431979
0.0424193
0.0416728
0.0409552
0.0402655
0.0396057
0.038981
0.0384004
0.0378802
0.0374484
0.037155
0.0371411
0.0374829
0.0510796
0.0493465
0.0479892
0.046835
0.045816
0.0448915
0.0440353
0.043231
0.0424682
0.0417405
0.0410441
0.0403776
0.0397425
0.0391433
0.0385887
0.038094
0.0376864
0.0374138
0.0374151
0.0377571
0.0510804
0.0493468
0.0479883
0.0468334
0.0458146
0.0448914
0.0440377
0.0432371
0.0424795
0.0417585
0.0410703
0.0404135
0.0397896
0.0392031
0.0386625
0.038183
0.0377915
0.0375354
0.0375534
0.0379079
0.0510807
0.049347
0.0479879
0.0468325
0.0458135
0.0448904
0.0440371
0.0432373
0.042481
0.0417618
0.041076
0.0404224
0.0398024
0.0392205
0.0386853
0.0382121
0.0378277
0.0375798
0.0376068
0.03797
0.0510807
0.049347
0.0479879
0.0468325
0.0458135
0.0448904
0.0440371
0.0432373
0.042481
0.0417618
0.041076
0.0404223
0.0398023
0.0392205
0.0386853
0.038212
0.0378277
0.0375797
0.0376068
0.03797
0.0510804
0.0493468
0.0479883
0.0468334
0.0458146
0.0448914
0.0440377
0.0432371
0.0424795
0.0417585
0.0410702
0.0404134
0.0397896
0.0392031
0.0386624
0.0381829
0.0377914
0.0375353
0.0375533
0.0379078
0.0510796
0.0493466
0.0479892
0.046835
0.045816
0.0448915
0.0440353
0.0432309
0.0424682
0.0417405
0.041044
0.0403775
0.0397424
0.0391432
0.0385886
0.0380939
0.0376863
0.0374137
0.037415
0.037757
0.0510782
0.0493461
0.0479899
0.046835
0.0458123
0.0448811
0.0440151
0.0431979
0.0424193
0.0416728
0.0409551
0.0402654
0.0396057
0.0389809
0.0384003
0.0378801
0.0374484
0.0371549
0.037141
0.0374828
0.0510755
0.0493435
0.047984
0.0468182
0.0457767
0.0448193
0.043921
0.0430663
0.0422466
0.0414568
0.0406951
0.0399619
0.0392606
0.0385974
0.0379829
0.0374348
0.0369836
0.0366834
0.0366819
0.037073
0.0510671
0.0493237
0.0479355
0.0467214
0.0456164
0.0445858
0.043609
0.042675
0.0417782
0.0409166
0.0400906
0.0393022
0.0385561
0.0378598
0.0372253
0.0366725
0.0362355
0.035975
0.0360487
0.036574
0.0510182
0.0491817
0.0476539
0.0462743
0.045
0.0438098
0.0426911
0.0416364
0.040642
0.0397056
0.0388264
0.0380054
0.0372458
0.0365542
0.0359425
0.0354314
0.0350576
0.0348869
0.0350836
0.0357808
0.0506533
0.0483234
0.0463276
0.0445527
0.0429652
0.0415367
0.0402432
0.039066
0.0379907
0.0370064
0.0361048
0.0352811
0.0345342
0.0338669
0.0332877
0.032814
0.0324781
0.0323388
0.0325405
0.0331971
0.0458634
0.0412961
0.0381869
0.0358581
0.0340182
0.0325075
0.0312314
0.0301305
0.0291636
0.0282977
0.027517
0.0268105
0.0261716
0.0255974
0.0250891
0.0246538
0.0243075
0.0240815
0.0240587
0.0243015
0.00482464
0.00493161
0.00503433
0.00513306
0.00522757
0.0053179
0.00540434
0.00548722
0.00556693
0.00564399
0.00571866
0.00579129
0.00586229
0.00593214
0.00600138
0.0060706
0.00614046
0.00621162
0.00628564
0.00635743
0.00483192
0.00495519
0.0050771
0.00519568
0.00530973
0.00541874
0.00552263
0.00562156
0.00571579
0.00580574
0.00589211
0.00597521
0.00605543
0.00613324
0.00620917
0.00628386
0.00635796
0.00643221
0.00650784
0.00658272
0.0506996
0.0484006
0.0464235
0.0446599
0.0430775
0.0416491
0.040351
0.0391646
0.0380755
0.0370685
0.0361203
0.0352303
0.0343991
0.0336293
0.0329263
0.0322992
0.0317653
0.0313545
0.0311254
0.0311028
0.0582723
0.0585928
0.0586236
0.058363
0.0578757
0.0572267
0.0564684
0.0556416
0.0547781
0.0538983
0.0530176
0.0521538
0.0513242
0.0505468
0.049843
0.0492426
0.0487905
0.0485562
0.0486628
0.0491635
0.0590441
0.0601367
0.0608762
0.0612589
0.0613433
0.0611946
0.0608688
0.0604126
0.0598646
0.0592565
0.0586146
0.0579627
0.0573238
0.056723
0.0561912
0.0557704
0.0555238
0.0555491
0.0560195
0.0570266
0.0592005
0.0605335
0.0615346
0.0621674
0.0624726
0.0625094
0.0623341
0.0619964
0.0615384
0.0609958
0.0603991
0.0597748
0.0591486
0.0585476
0.0580039
0.0575616
0.0572865
0.0572822
0.0577406
0.0587781
0.0592301
0.060619
0.0617151
0.0624716
0.0629122
0.0630825
0.0630301
0.062799
0.0624283
0.061952
0.0613998
0.0607981
0.0601722
0.0595482
0.0589569
0.0584387
0.0580544
0.0578995
0.0581596
0.0589478
0.059236
0.060632
0.0617498
0.0625469
0.0630444
0.0632832
0.0633063
0.0631532
0.0628592
0.0624549
0.061967
0.0614195
0.0608351
0.0602375
0.0596544
0.0591221
0.0586948
0.0584577
0.0585832
0.0591667
0.059238
0.0606331
0.0617526
0.0625582
0.0630722
0.0633355
0.0633899
0.0632743
0.0630227
0.0626639
0.0622231
0.0617223
0.0611825
0.0606256
0.0600766
0.059569
0.0591525
0.0589053
0.0589906
0.0594875
0.059239
0.060633
0.061751
0.062557
0.0630744
0.0633442
0.0634088
0.0633069
0.0630725
0.0627343
0.0623171
0.0618423
0.0613303
0.060802
0.0602815
0.0598006
0.0594071
0.0591756
0.0592647
0.0597436
0.0592395
0.060633
0.06175
0.0625554
0.0630731
0.0633442
0.0634113
0.0633132
0.0630841
0.0627529
0.0623442
0.0618796
0.0613793
0.0608638
0.0603572
0.0598908
0.0595114
0.0592926
0.0593912
0.0598723
0.0592395
0.060633
0.06175
0.0625554
0.0630731
0.0633443
0.0634113
0.0633132
0.0630841
0.0627529
0.0623442
0.0618796
0.0613793
0.0608638
0.0603572
0.0598908
0.0595114
0.0592926
0.0593913
0.0598723
0.059239
0.060633
0.061751
0.062557
0.0630744
0.0633443
0.0634088
0.0633069
0.0630725
0.0627344
0.0623171
0.0618423
0.0613303
0.060802
0.0602815
0.0598006
0.0594071
0.0591756
0.0592648
0.0597437
0.059238
0.0606331
0.0617526
0.0625582
0.0630723
0.0633355
0.06339
0.0632744
0.0630227
0.062664
0.0622231
0.0617223
0.0611826
0.0606256
0.0600767
0.0595691
0.0591526
0.0589053
0.0589907
0.0594875
0.059236
0.060632
0.0617498
0.062547
0.0630445
0.0632833
0.0633064
0.0631533
0.0628593
0.062455
0.0619671
0.0614195
0.0608351
0.0602376
0.0596545
0.0591222
0.0586949
0.0584577
0.0585832
0.0591666
0.0592301
0.060619
0.0617152
0.0624717
0.0629122
0.0630826
0.0630303
0.0627992
0.0624284
0.0619522
0.0613999
0.0607982
0.0601723
0.0595483
0.0589569
0.0584388
0.0580544
0.0578995
0.0581595
0.0589476
0.0592005
0.0605335
0.0615346
0.0621674
0.0624726
0.0625093
0.0623341
0.0619963
0.0615384
0.0609959
0.0603991
0.0597749
0.0591488
0.0585477
0.058004
0.0575617
0.0572866
0.0572823
0.0577407
0.0587781
0.0590441
0.0601366
0.0608763
0.0612591
0.0613433
0.0611944
0.0608685
0.0604123
0.0598643
0.0592562
0.0586145
0.0579628
0.057324
0.0567235
0.0561918
0.0557712
0.0555248
0.0555502
0.0560207
0.0570281
0.0582724
0.058592
0.058623
0.0583629
0.0578756
0.0572265
0.0564679
0.0556409
0.0547771
0.0538973
0.0530165
0.0521529
0.0513234
0.0505462
0.0498426
0.0492425
0.0487907
0.0485567
0.0486636
0.0491648
0.0506999
0.0483984
0.0464218
0.0446599
0.0430792
0.0416523
0.0403554
0.0391699
0.0380813
0.037075
0.0361272
0.0352375
0.0344065
0.0336368
0.0329339
0.0323068
0.0317728
0.031362
0.0311328
0.0311101
0.00483194
0.00495496
0.00507671
0.00519518
0.00530917
0.00541816
0.00552204
0.00562097
0.00571522
0.00580519
0.00589158
0.00597471
0.00605497
0.00613282
0.00620879
0.00628352
0.00635767
0.00643196
0.00650764
0.00658258
0.00483338
0.00496099
0.00509021
0.00521825
0.00534317
0.0054638
0.0055795
0.00568999
0.00579521
0.00589522
0.00599023
0.00608056
0.00616663
0.00624894
0.00632818
0.00640546
0.00648139
0.00655666
0.00663227
0.00670761
0.0510694
0.0492711
0.04777
0.0464088
0.0451471
0.0439662
0.0428541
0.0418042
0.0408123
0.0398758
0.0389921
0.0381607
0.0373828
0.036664
0.0360077
0.0354007
0.0348629
0.0344225
0.0341209
0.0339773
0.059101
0.0602246
0.0609866
0.0613855
0.0614811
0.0613395
0.0610168
0.060559
0.0600039
0.0593817
0.0587179
0.0580354
0.057356
0.0566961
0.0560717
0.0555146
0.0550693
0.0547981
0.05479
0.0550889
0.0610864
0.0617234
0.0625176
0.0633196
0.0640469
0.0646604
0.0651419
0.0654861
0.0656971
0.065786
0.0657689
0.0656637
0.0654934
0.0652868
0.0650796
0.0649192
0.0648715
0.0650294
0.0655269
0.0664408
0.061495
0.0623558
0.0632263
0.0640492
0.0647953
0.0654513
0.0660092
0.0664636
0.0668132
0.0670615
0.0672165
0.0672907
0.0673022
0.0672759
0.0672465
0.0672628
0.067397
0.0677544
0.0684952
0.069724
0.0615989
0.0626086
0.063625
0.064572
0.065413
0.0661348
0.0667323
0.0672045
0.0675544
0.0677885
0.0679166
0.0679526
0.0679144
0.0678257
0.0677193
0.0676417
0.0676623
0.0678852
0.0684777
0.0695605
0.0616192
0.0626661
0.0637434
0.0647697
0.065699
0.0665091
0.0671885
0.0677316
0.0681383
0.0684127
0.0685634
0.0686023
0.0685459
0.0684157
0.068241
0.0680636
0.0679461
0.0679831
0.0683344
0.0691177
0.0616234
0.0626752
0.0637663
0.0648188
0.065786
0.0666434
0.0673765
0.0679768
0.0684411
0.0687707
0.0689713
0.069052
0.0690264
0.0689129
0.0687372
0.0685361
0.068365
0.0683089
0.0685163
0.0690926
0.0616248
0.0626762
0.0637684
0.0648262
0.0658043
0.0666785
0.067434
0.0680618
0.0685579
0.0689225
0.0691597
0.0692771
0.0692864
0.0692039
0.0690525
0.0688658
0.0686947
0.0686172
0.0687739
0.0692591
0.0616253
0.0626763
0.0637678
0.0648259
0.0658063
0.0666849
0.0674471
0.0680842
0.0685921
0.068971
0.0692244
0.0693597
0.0693877
0.0693238
0.06919
0.0690181
0.0688569
0.0687816
0.0689286
0.0693864
0.0616253
0.0626763
0.0637678
0.064826
0.0658063
0.0666849
0.0674471
0.0680842
0.0685921
0.068971
0.0692244
0.0693597
0.0693877
0.0693239
0.06919
0.0690181
0.0688569
0.0687816
0.0689286
0.0693864
0.0616248
0.0626763
0.0637684
0.0648262
0.0658044
0.0666785
0.067434
0.0680619
0.068558
0.0689226
0.0691597
0.0692771
0.0692864
0.069204
0.0690526
0.0688659
0.0686947
0.0686173
0.068774
0.0692592
0.0616234
0.0626752
0.0637663
0.0648188
0.0657861
0.0666435
0.0673766
0.0679769
0.0684412
0.0687708
0.0689713
0.0690521
0.0690265
0.068913
0.0687373
0.0685362
0.0683651
0.0683089
0.0685163
0.0690926
0.0616192
0.0626661
0.0637434
0.0647697
0.065699
0.0665092
0.0671886
0.0677317
0.0681384
0.0684129
0.0685635
0.0686025
0.068546
0.0684157
0.068241
0.0680636
0.067946
0.067983
0.0683343
0.0691174
0.0615989
0.0626086
0.0636251
0.064572
0.065413
0.0661348
0.0667322
0.0672045
0.0675544
0.0677884
0.0679166
0.0679526
0.0679143
0.0678257
0.0677192
0.0676416
0.0676622
0.067885
0.0684775
0.0695602
0.061495
0.0623558
0.0632264
0.0640494
0.0647953
0.0654513
0.066009
0.0664633
0.0668129
0.0670612
0.0672161
0.0672903
0.0673019
0.0672758
0.0672464
0.0672628
0.0673971
0.0677546
0.0684955
0.0697244
0.0610865
0.0617229
0.0625173
0.0633195
0.0640468
0.0646603
0.0651418
0.0654859
0.0656969
0.0657858
0.0657687
0.0656637
0.0654937
0.0652874
0.0650804
0.0649202
0.0648728
0.065031
0.0655288
0.066443
0.0591011
0.0602233
0.0609854
0.0613847
0.0614806
0.061339
0.0610161
0.0605581
0.0600026
0.0593803
0.0587163
0.0580338
0.0573544
0.0566948
0.0560706
0.0555139
0.055069
0.0547982
0.0547907
0.0550901
0.0510697
0.0492687
0.0477681
0.0464086
0.0451489
0.0439695
0.0428587
0.0418098
0.0408186
0.0398825
0.0389992
0.038168
0.0373902
0.0366713
0.036015
0.035408
0.0348702
0.0344298
0.034128
0.0339843
0.0048334
0.00496076
0.00508981
0.00521774
0.0053426
0.00546319
0.00557889
0.00568938
0.00579462
0.00589466
0.0059897
0.00608007
0.00616619
0.00624855
0.00632783
0.00640515
0.00648113
0.00655646
0.00663213
0.00670752
0.00483351
0.00496181
0.00509271
0.00522337
0.00535172
0.00547646
0.00559681
0.00571234
0.00582281
0.00592814
0.00602841
0.00612382
0.0062147
0.00630145
0.00638467
0.00646528
0.00654379
0.00662085
0.0066973
0.00677328
0.0511182
0.049416
0.0480593
0.0468687
0.0457824
0.0447678
0.0438061
0.0428873
0.0420068
0.0411629
0.0403555
0.0395865
0.0388595
0.0381801
0.0375527
0.036974
0.0364616
0.0360371
0.0357274
0.0355444
0.0592707
0.0606548
0.0617032
0.0623808
0.0627297
0.0628095
0.0626769
0.062381
0.0619638
0.0614601
0.0608992
0.0603067
0.0597066
0.059124
0.0585782
0.0580913
0.0577035
0.057466
0.0574411
0.05766
0.0615556
0.0624616
0.0633787
0.0642509
0.0650489
0.0657597
0.0663744
0.0668873
0.0672963
0.0676041
0.0678181
0.0679509
0.06802
0.0680459
0.0680584
0.0680998
0.0682278
0.0685203
0.0690746
0.0699499
0.063078
0.0633337
0.0637543
0.0642817
0.0648697
0.0654884
0.0661146
0.0667287
0.0673138
0.067857
0.0683504
0.0687912
0.0691843
0.0695431
0.0698927
0.0702729
0.0707452
0.0713976
0.0723479
0.0736775
0.0634094
0.0638574
0.0643328
0.0648303
0.0653405
0.0658558
0.0663683
0.0668683
0.0673461
0.0677926
0.0682011
0.0685691
0.0688996
0.0692034
0.0695022
0.0698332
0.0702557
0.0708593
0.0717712
0.0730894
0.063487
0.0640477
0.0646342
0.0652257
0.0658062
0.0663659
0.0668968
0.0673909
0.0678403
0.0682379
0.0685787
0.0688608
0.069087
0.0692673
0.0694208
0.0695814
0.0698039
0.0701729
0.0708153
0.0718364
0.0635015
0.06409
0.0647208
0.0653697
0.0660142
0.0666386
0.06723
0.0677765
0.0682674
0.0686931
0.0690466
0.0693239
0.0695258
0.0696594
0.0697405
0.0697982
0.0698809
0.0700653
0.070471
0.0712006
0.0635043
0.0640968
0.0647379
0.0654054
0.0660768
0.0667348
0.0673645
0.0679522
0.0684846
0.0689501
0.069339
0.0696451
0.0698665
0.0700074
0.0700804
0.07011
0.0701392
0.0702375
0.0705168
0.071073
0.063505
0.0640975
0.06474
0.0654115
0.0660904
0.0667595
0.0674038
0.068009
0.0685614
0.0690484
0.0694592
0.0697864
0.0700266
0.0701823
0.0702641
0.0702943
0.0703127
0.0703847
0.0706178
0.0711032
0.063505
0.0640975
0.06474
0.0654115
0.0660904
0.0667595
0.0674038
0.068009
0.0685615
0.0690484
0.0694593
0.0697864
0.0700266
0.0701824
0.0702642
0.0702943
0.0703127
0.0703847
0.0706179
0.0711033
0.0635043
0.0640968
0.0647379
0.0654054
0.0660769
0.0667348
0.0673646
0.0679522
0.0684847
0.0689501
0.069339
0.0696451
0.0698666
0.0700075
0.0700804
0.07011
0.0701393
0.0702375
0.0705168
0.0710729
0.0635015
0.06409
0.0647209
0.0653697
0.0660142
0.0666386
0.0672301
0.0677766
0.0682675
0.0686933
0.0690467
0.069324
0.0695259
0.0696594
0.0697406
0.0697982
0.0698809
0.0700652
0.0704709
0.0712004
0.063487
0.0640477
0.0646343
0.0652257
0.0658062
0.0663658
0.0668967
0.0673908
0.0678402
0.0682379
0.0685787
0.0688607
0.069087
0.0692672
0.0694207
0.0695812
0.0698036
0.0701726
0.0708149
0.071836
0.0634095
0.0638574
0.0643329
0.0648305
0.0653407
0.0658559
0.0663681
0.0668681
0.0673458
0.0677922
0.0682007
0.0685687
0.0688992
0.069203
0.0695018
0.0698328
0.0702553
0.0708589
0.0717707
0.073089
0.063078
0.0633333
0.0637541
0.0642816
0.0648697
0.0654884
0.0661146
0.0667286
0.0673135
0.0678567
0.0683499
0.0687907
0.0691838
0.0695428
0.0698924
0.0702728
0.0707451
0.0713976
0.0723481
0.0736779
0.0615556
0.0624606
0.0633778
0.0642502
0.0650484
0.0657593
0.0663742
0.0668871
0.0672961
0.067604
0.0678182
0.067951
0.0680203
0.0680464
0.0680592
0.0681008
0.0682291
0.0685219
0.0690765
0.0699522
0.0592708
0.0606533
0.0617017
0.0623798
0.0627289
0.0628088
0.062676
0.0623799
0.0619624
0.0614585
0.0608975
0.060305
0.0597049
0.0591224
0.0585769
0.0580904
0.057703
0.0574659
0.0574415
0.057661
0.0511185
0.0494136
0.0480573
0.0468685
0.045784
0.0447709
0.0438105
0.0428926
0.0420128
0.0411694
0.0403623
0.0395934
0.0388665
0.038187
0.0375597
0.0369809
0.0364685
0.0360438
0.035734
0.0355509
0.00483353
0.00496159
0.00509231
0.00522286
0.00535115
0.00547586
0.00559621
0.00571174
0.00582223
0.00592759
0.00602789
0.00612335
0.00621428
0.00630108
0.00638435
0.006465
0.00654357
0.00662069
0.00669719
0.00677322
0.00483348
0.0049618
0.005093
0.00522436
0.00535387
0.00548027
0.00560278
0.0057209
0.00583431
0.00594284
0.00604643
0.00614517
0.00623928
0.00632903
0.0064148
0.00649701
0.00657643
0.00665406
0.00673055
0.00680639
0.0511254
0.0494345
0.0481071
0.0469658
0.0459439
0.0450037
0.0441221
0.0432854
0.042486
0.0417199
0.0409856
0.040284
0.0396181
0.0389933
0.0384172
0.0379
0.0374493
0.0370671
0.0367744
0.0365825
0.0593011
0.0607453
0.061896
0.0627075
0.0632051
0.0634358
0.0634483
0.0632874
0.062993
0.0625997
0.0621375
0.0616332
0.0611121
0.0605993
0.0601212
0.0597098
0.0593848
0.0591857
0.0591586
0.0593291
0.061672
0.062745
0.0638321
0.0648583
0.0657887
0.0666111
0.0673215
0.0679197
0.068409
0.0687966
0.0690929
0.0693124
0.0694739
0.0696016
0.0697263
0.0698814
0.0701158
0.0704927
0.0710838
0.071936
0.063464
0.0639516
0.064469
0.0650137
0.0655789
0.0661591
0.0667484
0.0673387
0.0679214
0.0684885
0.0690346
0.0695577
0.0700619
0.0705586
0.0710681
0.0716241
0.0722769
0.0730968
0.07417
0.0755593
0.0648155
0.0648848
0.0650632
0.0653214
0.0656339
0.0659849
0.0663649
0.0667666
0.0671832
0.0676087
0.0680382
0.0684697
0.0689055
0.0693544
0.0698344
0.0703769
0.0710312
0.0718696
0.0729861
0.0744573
0.0650929
0.0653398
0.0655919
0.0658556
0.0661293
0.0664111
0.0666995
0.0669923
0.0672863
0.0675777
0.067863
0.0681408
0.0684133
0.0686884
0.0689826
0.0693253
0.0697635
0.0703681
0.0712359
0.0724531
0.0651537
0.065491
0.0658339
0.0661765
0.0665121
0.0668366
0.0671477
0.0674432
0.0677201
0.0679749
0.0682042
0.0684061
0.0685817
0.0687371
0.0688866
0.0690559
0.0692881
0.0696496
0.0702349
0.0711333
0.0651647
0.0655241
0.0659017
0.0662888
0.0666739
0.0670483
0.0674061
0.067742
0.0680506
0.0683263
0.0685637
0.068759
0.0689113
0.0690245
0.0691099
0.0691898
0.0693031
0.0695111
0.0699043
0.0705711
0.0651666
0.0655294
0.0659153
0.0663164
0.0667206
0.067118
0.0675011
0.0678631
0.0681969
0.0684951
0.0687506
0.0689581
0.069115
0.0692233
0.0692925
0.0693426
0.0694096
0.069552
0.0698572
0.070412
0.0651666
0.0655294
0.0659154
0.0663164
0.0667206
0.067118
0.0675012
0.0678632
0.0681969
0.0684951
0.0687506
0.0689581
0.069115
0.0692233
0.0692925
0.0693426
0.0694096
0.069552
0.0698571
0.0704119
0.0651647
0.0655241
0.0659018
0.0662889
0.0666739
0.0670484
0.0674062
0.0677421
0.0680507
0.0683264
0.0685638
0.0687591
0.0689114
0.0690246
0.0691099
0.0691898
0.069303
0.069511
0.0699041
0.0705708
0.0651537
0.065491
0.0658339
0.0661765
0.0665121
0.0668366
0.0671476
0.0674431
0.06772
0.0679749
0.0682042
0.0684061
0.0685816
0.0687371
0.0688865
0.0690558
0.0692879
0.0696493
0.0702345
0.0711328
0.065093
0.0653398
0.065592
0.0658558
0.0661294
0.0664112
0.0666995
0.0669922
0.0672861
0.0675774
0.0678627
0.0681404
0.0684129
0.068688
0.0689822
0.0693248
0.069763
0.0703675
0.0712352
0.0724523
0.0648155
0.0648845
0.065063
0.0653213
0.0656339
0.0659849
0.0663648
0.0667664
0.0671829
0.0676083
0.0680377
0.0684692
0.0689049
0.0693538
0.0698338
0.0703763
0.0710306
0.0718689
0.0729854
0.0744566
0.063464
0.0639508
0.0644681
0.065013
0.0655784
0.0661587
0.0667481
0.0673384
0.0679211
0.0684882
0.0690342
0.0695572
0.0700615
0.0705582
0.0710677
0.0716238
0.0722767
0.0730967
0.07417
0.0755596
0.061672
0.0627439
0.0638309
0.0648574
0.0657879
0.0666105
0.067321
0.0679193
0.0684088
0.0687964
0.0690928
0.0693125
0.0694742
0.0696021
0.0697269
0.0698822
0.0701169
0.0704939
0.0710854
0.0719379
0.0593012
0.0607438
0.0618945
0.0627064
0.0632041
0.0634348
0.0634471
0.0632859
0.0629913
0.0625977
0.0621354
0.0616312
0.0611102
0.0605975
0.0601196
0.0597084
0.0593838
0.0591852
0.0591587
0.0593297
0.0511257
0.0494321
0.0481051
0.0469655
0.0459454
0.0450067
0.0441263
0.0432906
0.0424918
0.0417261
0.040992
0.0402905
0.0396246
0.0389998
0.0384236
0.0379061
0.0374554
0.0370731
0.0367804
0.0365882
0.00483351
0.00496157
0.0050926
0.00522386
0.00535331
0.00547968
0.00560218
0.00572031
0.00583374
0.0059423
0.00604593
0.00614472
0.00623888
0.00632868
0.00641451
0.00649677
0.00657625
0.00665393
0.00673048
0.00680636
0.00483346
0.00496175
0.005093
0.00522453
0.00535435
0.00548121
0.00560435
0.00572328
0.00583768
0.00594735
0.00605222
0.00615235
0.0062479
0.00633912
0.00642632
0.00650985
0.00659013
0.00666819
0.00674471
0.0068203
0.0511271
0.049436
0.0481124
0.0469831
0.0459815
0.0450691
0.0442217
0.0434244
0.0426682
0.0419478
0.0412604
0.0406057
0.0399858
0.039405
0.0388699
0.0383897
0.037976
0.0376287
0.0373592
0.0371778
0.0593061
0.0607579
0.0619322
0.0627876
0.0633465
0.0636516
0.0637472
0.0636743
0.0634697
0.0631655
0.0627897
0.0623678
0.0619239
0.0614821
0.0610673
0.0607076
0.0604353
0.0602699
0.0602463
0.0603886
0.0616932
0.0628069
0.0639619
0.0650784
0.0661122
0.0670435
0.0678628
0.0685668
0.0691575
0.0696417
0.0700302
0.0703381
0.0705849
0.0707949
0.070998
0.0712311
0.0715348
0.0719582
0.0725579
0.0733753
0.063553
0.0641694
0.0648191
0.0654851
0.0661549
0.0668226
0.0674842
0.0681354
0.0687719
0.0693902
0.069989
0.0705699
0.0711397
0.0717113
0.0723058
0.0729536
0.0736974
0.0745943
0.0757111
0.0771009
0.0651421
0.0654237
0.0657122
0.066017
0.066339
0.0666791
0.0670383
0.067417
0.0678148
0.0682306
0.0686639
0.0691162
0.0695926
0.0701038
0.0706683
0.0713149
0.0720861
0.0730413
0.0742533
0.075786
0.0663416
0.0663275
0.0663895
0.0665072
0.0666621
0.0668426
0.0670426
0.0672587
0.0674888
0.0677318
0.0679872
0.0682571
0.0685469
0.0688672
0.0692359
0.0696818
0.0702475
0.0709933
0.0719965
0.0733304
0.0665779
0.066722
0.0668609
0.0670021
0.0671458
0.0672908
0.0674365
0.0675823
0.0677275
0.067871
0.0680124
0.0681529
0.0682966
0.0684528
0.0686379
0.0688786
0.0692157
0.0697084
0.070435
0.0714742
0.0666273
0.0668462
0.0670607
0.0672684
0.0674651
0.0676479
0.0678152
0.0679665
0.0681008
0.0682172
0.0683149
0.0683947
0.0684599
0.0685186
0.0685856
0.0686857
0.068858
0.0691597
0.0696688
0.0704669
0.0666358
0.0668726
0.0671144
0.0673553
0.0675872
0.0678037
0.0680004
0.0681746
0.0683238
0.0684459
0.0685393
0.0686039
0.0686424
0.0686621
0.068677
0.0687108
0.0688014
0.0690053
0.0693997
0.0700679
0.0666358
0.0668726
0.0671144
0.0673553
0.0675872
0.0678037
0.0680005
0.0681746
0.0683238
0.0684459
0.0685393
0.0686039
0.0686424
0.0686621
0.068677
0.0687108
0.0688014
0.0690052
0.0693996
0.0700678
0.0666273
0.0668462
0.0670608
0.0672684
0.0674651
0.0676478
0.0678151
0.0679664
0.0681007
0.0682171
0.0683149
0.0683946
0.0684599
0.0685185
0.0685855
0.0686856
0.0688578
0.0691595
0.0696685
0.0704665
0.0665779
0.066722
0.066861
0.0670023
0.0671459
0.0672909
0.0674365
0.0675822
0.0677273
0.0678708
0.0680122
0.0681526
0.0682963
0.0684525
0.0686376
0.0688782
0.0692152
0.0697079
0.0704344
0.0714735
0.0663417
0.0663272
0.0663892
0.0665071
0.0666621
0.0668427
0.0670426
0.0672586
0.0674886
0.0677315
0.0679869
0.0682567
0.0685464
0.0688666
0.0692354
0.0696812
0.0702468
0.0709925
0.0719956
0.0733294
0.0651421
0.065423
0.0657114
0.0660163
0.0663385
0.0666787
0.067038
0.0674167
0.0678144
0.0682301
0.0686634
0.0691156
0.0695919
0.0701031
0.0706676
0.0713141
0.0720853
0.0730404
0.0742524
0.0757851
0.063553
0.0641685
0.0648181
0.0654842
0.0661542
0.066822
0.0674837
0.0681349
0.0687714
0.0693898
0.0699885
0.0705694
0.0711392
0.0717108
0.0723053
0.0729531
0.073697
0.074594
0.075711
0.077101
0.0616932
0.0628058
0.0639607
0.0650774
0.0661114
0.0670427
0.0678621
0.0685662
0.069157
0.0696413
0.0700299
0.070338
0.0705849
0.0707951
0.0709984
0.0712316
0.0715356
0.0719592
0.0725592
0.0733769
0.0593062
0.0607563
0.0619306
0.0627864
0.0633456
0.0636506
0.0637459
0.0636727
0.0634678
0.0631634
0.0627875
0.0623656
0.0619218
0.0614801
0.0610655
0.0607061
0.060434
0.0602691
0.0602461
0.0603889
0.0511274
0.0494336
0.0481105
0.0469828
0.045983
0.0450721
0.0442259
0.0434294
0.0426738
0.0419538
0.0412666
0.040612
0.0399921
0.0394112
0.038876
0.0383955
0.0379815
0.0376342
0.0373646
0.0371831
0.00483348
0.00496152
0.0050926
0.00522403
0.00535379
0.00548062
0.00560376
0.0057227
0.00583712
0.00594682
0.00605173
0.00615191
0.00624752
0.0063388
0.00642605
0.00650963
0.00658998
0.00666809
0.00674467
0.0068203
0.00483345
0.00496173
0.00509299
0.00522462
0.00535459
0.00548168
0.00560513
0.00572448
0.00583939
0.00594967
0.00605523
0.00615611
0.00625245
0.00634447
0.00643241
0.0065166
0.00659739
0.00667522
0.00675115
0.00682587
0.0511278
0.0494359
0.0481119
0.0469846
0.0459886
0.0450852
0.0442503
0.0434689
0.0427321
0.0420341
0.0413718
0.0407444
0.0401534
0.0396023
0.0390966
0.0386443
0.0382555
0.037942
0.0377003
0.0375389
0.0593073
0.0607582
0.0619351
0.0628007
0.0633785
0.0637108
0.0638412
0.0638098
0.0636523
0.0633994
0.0630778
0.0627116
0.0623233
0.0619351
0.0615701
0.061253
0.0610112
0.0608747
0.0608612
0.060992
0.0616967
0.0628155
0.0639858
0.0651318
0.0662087
0.0671945
0.0680775
0.068852
0.0695181
0.0700806
0.0705488
0.0709363
0.0712612
0.0715461
0.0718187
0.0721122
0.0724659
0.0729241
0.0735276
0.0743174
0.0635686
0.0642158
0.064916
0.0656489
0.0663963
0.0671472
0.0678938
0.0686296
0.0693493
0.0700491
0.0707276
0.0713871
0.0720347
0.0726835
0.0733534
0.0740731
0.0748802
0.0758215
0.0769523
0.0783235
0.0652134
0.0655996