/*--------------------------------*- C++ -*----------------------------------*\
  =========                 |
  \\      /  F ield         | OpenFOAM: The Open Source CFD Toolbox
   \\    /   O peration     | Website:  https://openfoam.org
    \\  /    A nd           | Version:  10
     \\/     M anipulation  |
\*---------------------------------------------------------------------------*/
FoamFile
{
    format      ascii;
    class       volScalarField;
    location    "100";
    object      p;
}
// * * * * * * * * * * * * * * * * * * * * * * * * * * * * * * * * * * * * * //

dimensions      [1 -1 -2 0 0 0 0];

internalField   nonuniform List<scalar> 
112000
(
166630
166004
165534
165273
165090
164902
164683
164430
164135
163786
163365
162855
162234
161477
160544
159380
157898
155957
153303
149530
165404
165264
165101
164982
164870
164732
164551
164324
164048
163714
163305
162806
162194
161442
160514
159354
157874
155934
153275
149499
165553
165461
165334
165199
165055
164886
164681
164434
164140
163791
163371
162861
162240
161479
160542
159372
157881
155928
153249
149451
165549
165394
165226
165079
164934
164771
164573
164335
164050
163709
163296
162791
162172
161413
160476
159302
157804
155837
153136
149304
165536
165377
165217
165086
164956
164800
164607
164370
164084
163740
163322
162811
162185
161418
160471
159284
157770
155780
153047
149173
165520
165361
165200
165067
164934
164775
164579
164339
164051
163704
163283
162769
162141
161369
160415
159219
157691
155682
152921
149009
165507
165348
165188
165056
164924
164767
164572
164333
164045
163698
163277
162761
162129
161352
160391
159185
157643
155615
152829
148884
165497
165338
165178
165047
164915
164758
164562
164322
164033
163685
163260
162742
162106
161324
160357
159143
157590
155549
152743
148772
165489
165331
165171
165041
164910
164752
164556
164316
164027
163677
163252
162732
162094
161309
160338
159119
157559
155508
152689
148701
165486
165327
165168
165038
164907
164749
164553
164313
164023
163673
163247
162726
162087
161301
160327
159105
157541
155485
152660
148661
165486
165327
165168
165038
164907
164749
164553
164313
164023
163673
163247
162726
162087
161301
160327
159105
157541
155485
152660
148661
165489
165331
165171
165041
164909
164752
164556
164316
164027
163677
163252
162732
162094
161309
160338
159119
157559
155508
152689
148701
165496
165337
165178
165047
164915
164758
164562
164322
164033
163684
163260
162742
162106
161324
160357
159143
157590
155548
152743
148772
165507
165348
165187
165056
164924
164767
164572
164333
164045
163698
163276
162761
162129
161352
160391
159185
157643
155615
152828
148884
165520
165361
165200
165067
164934
164775
164578
164339
164050
163704
163283
162769
162140
161369
160415
159219
157691
155682
152920
149009
165535
165377
165217
165086
164955
164800
164606
164369
164084
163740
163321
162810
162185
161418
160470
159284
157769
155779
153046
149173
165548
165393
165226
165079
164934
164770
164573
164334
164050
163709
163295
162791
162172
161413
160475
159301
157803
155836
153135
149303
165553
165461
165333
165199
165054
164885
164680
164433
164140
163790
163370
162861
162239
161479
160542
159372
157881
155927
153249
149450
165404
165264
165101
164981
164870
164731
164550
164324
164048
163713
163305
162805
162193
161442
160514
159354
157874
155933
153275
149499
166630
166004
165534
165273
165089
164901
164683
164429
164134
163785
163365
162855
162234
161477
160544
159380
157898
155957
153303
149529
165435
165295
165132
165012
164902
164765
164586
164363
164093
163765
163365
162878
162282
161553
160658
159546
158148
156356
154012
150940
164338
164500
164627
164674
164654
164574
164437
164245
163996
163683
163296
162818
162229
161504
160610
159498
158096
156297
153938
150860
164479
164681
164829
164866
164818
164711
164552
164340
164075
163748
163349
162859
162260
161525
160620
159496
158079
156263
153881
150783
164452
164616
164728
164752
164706
164605
164453
164250
163992
163672
163277
162791
162193
161457
160550
159420
157993
156162
153756
150630
164430
164600
164718
164753
164717
164623
164474
164272
164012
163689
163290
162799
162194
161451
160533
159391
157948
156094
153659
150498
164411
164584
164702
164734
164696
164599
164449
164244
163983
163657
163256
162761
162152
161404
160479
159326
157869
155995
153532
150338
164396
164570
164690
164723
164685
164590
164440
164236
163974
163648
163245
162748
162136
161382
160450
159286
157815
155923
153436
150211
164385
164559
164681
164714
164676
164581
164430
164225
163962
163635
163230
162730
162114
161355
160416
159245
157763
155856
153350
150101
164377
164552
164674
164708
164671
164575
164424
164219
163955
163627
163221
162719
162101
161339
160396
159219
157730
155814
153295
150029
164373
164549
164671
164705
164668
164572
164421
164215
163951
163622
163215
162713
162094
161330
160385
159205
157712
155791
153265
149990
164373
164549
164671
164705
164668
164572
164421
164215
163951
163622
163215
162713
162093
161330
160385
159205
157712
155791
153265
149990
164377
164552
164674
164708
164671
164575
164424
164219
163955
163627
163221
162719
162101
161339
160396
159219
157730
155814
153294
150029
164385
164559
164680
164714
164676
164580
164430
164225
163962
163635
163230
162730
162114
161355
160416
159244
157763
155856
153350
150101
164396
164570
164690
164723
164685
164590
164440
164236
163974
163648
163245
162748
162136
161382
160450
159286
157815
155923
153435
150211
164411
164584
164702
164734
164696
164599
164449
164244
163982
163657
163255
162761
162152
161404
160479
159326
157868
155994
153532
150337
164429
164600
164718
164752
164716
164622
164474
164271
164012
163689
163290
162798
162194
161451
160533
159390
157948
156094
153658
150498
164451
164616
164727
164751
164705
164605
164453
164250
163991
163671
163277
162791
162193
161457
160550
159419
157993
156161
153755
150630
164479
164681
164829
164865
164818
164711
164551
164340
164074
163748
163348
162859
162260
161525
160620
159496
158079
156262
153880
150782
164338
164499
164626
164674
164653
164573
164437
164244
163995
163683
163296
162818
162228
161504
160610
159498
158095
156296
153938
150859
165435
165295
165132
165012
164901
164764
164586
164363
164092
163764
163365
162877
162282
161553
160657
159546
158147
156356
154011
150939
165640
165547
165420
165289
165149
164989
164795
164563
164289
163965
163578
163110
162545
161860
161028
160010
158754
157189
155225
152784
164539
164740
164889
164928
164885
164784
164633
164433
164182
163875
163499
163041
162481
161800
160969
159949
158687
157113
155132
152679
165109
165100
165158
165147
165058
164916
164734
164509
164238
163914
163524
163054
162484
161791
160948
159915
158638
157044
155036
152559
165051
165024
165040
165020
164938
164807
164634
164417
164153
163835
163449
162981
162412
161718
160870
159830
158541
156931
154898
152395
164997
165013
165043
165027
164952
164824
164651
164432
164165
163842
163451
162976
162399
161697
160839
159785
158479
156847
154787
152251
164969
165000
165033
165012
164931
164801
164626
164405
164135
163809
163415
162937
162356
161647
160781
159716
158396
156744
154658
152092
164950
164985
165023
165002
164920
164790
164616
164395
164125
163798
163401
162920
162334
161620
160746
159670
158336
156666
154555
151962
164936
164974
165014
164994
164912
164781
164605
164384
164112
163783
163385
162901
162311
161591
160711
159626
158281
156597
154468
151852
164927
164966
165008
164989
164907
164775
164599
164377
164105
163775
163375
162889
162297
161574
160689
159599
158246
156552
154410
151779
164923
164962
165005
164986
164904
164772
164596
164373
164101
163770
163370
162883
162289
161564
160677
159584
158228
156528
154379
151740
164923
164962
165005
164986
164904
164772
164596
164373
164101
163770
163369
162883
162289
161564
160677
159584
158228
156528
154379
151740
164927
164966
165008
164989
164906
164775
164599
164377
164105
163775
163375
162889
162297
161574
160689
159599
158246
156552
154410
151779
164936
164974
165014
164994
164912
164781
164605
164384
164112
163783
163385
162901
162311
161591
160710
159626
158281
156597
154467
151852
164950
164985
165023
165002
164920
164790
164615
164395
164125
163797
163401
162920
162334
161620
160746
159670
158336
156666
154555
151962
164969
165000
165033
165012
164931
164800
164625
164405
164135
163809
163415
162937
162356
161647
160781
159716
158396
156744
154657
152092
164997
165013
165043
165027
164951
164824
164651
164432
164165
163841
163451
162976
162399
161696
160838
159785
158479
156847
154786
152251
165051
165024
165040
165019
164938
164807
164634
164417
164153
163834
163449
162981
162411
161718
160870
159830
158541
156930
154898
152394
165109
165099
165157
165146
165057
164916
164733
164509
164238
163913
163524
163053
162483
161791
160948
159915
158637
157043
155036
152559
164539
164740
164889
164927
164884
164783
164633
164433
164182
163874
163499
163040
162481
161800
160968
159948
158687
157112
155131
152678
165640
165547
165420
165288
165149
164988
164794
164563
164289
163965
163577
163110
162544
161860
161028
160010
158753
157189
155224
152784
165714
165560
165396
165257
165126
164981
164808
164603
164361
164073
163728
163309
162804
162195
161461
160574
159499
158194
156612
154728
164593
164758
164874
164906
164873
164790
164662
164488
164268
163995
163661
163251
162752
162146
161412
160524
159445
158132
156537
154641
165138
165112
165131
165116
165044
164924
164765
164567
164326
164037
163688
163266
162755
162139
161393
160492
159397
158064
156444
154524
165388
165164
165066
165019
164946
164833
164681
164490
164255
163970
163624
163204
162693
162073
161323
160412
159305
157956
156312
154365
165302
165141
165056
165016
164952
164846
164695
164502
164263
163974
163622
163195
162676
162047
161285
160362
159238
157867
156197
154220
165246
165131
165057
165008
164937
164826
164673
164477
164236
163943
163588
163157
162634
161998
161228
160293
159155
157766
156071
154067
165217
165118
165052
165001
164927
164815
164662
164466
164224
163929
163572
163137
162609
161967
161188
160242
159090
157683
155967
153938
165199
165105
165045
164995
164919
164805
164651
164454
164210
163914
163554
163116
162584
161937
161152
160197
159034
157613
155878
153830
165188
165097
165040
164991
164914
164799
164644
164447
164202
163905
163543
163103
162568
161918
161128
160167
158996
157566
155819
153756
165183
165092
165037
164989
164911
164796
164641
164443
164198
163900
163537
163096
162560
161908
161115
160152
158977
157541
155788
153718
165183
165092
165037
164989
164911
164796
164641
164443
164198
163900
163537
163096
162560
161908
161115
160152
158977
157541
155788
153718
165188
165097
165040
164991
164914
164799
164644
164447
164202
163905
163543
163103
162568
161918
161128
160167
158996
157566
155819
153756
165199
165105
165045
164995
164919
164805
164651
164454
164210
163914
163554
163116
162584
161937
161151
160197
159033
157613
155878
153830
165217
165118
165052
165001
164927
164815
164662
164465
164223
163929
163571
163137
162608
161967
161188
160242
159090
157683
155966
153938
165246
165131
165057
165008
164937
164826
164673
164477
164236
163943
163588
163157
162633
161998
161228
160293
159155
157766
156071
154067
165302
165141
165056
165015
164952
164845
164695
164501
164263
163973
163622
163195
162676
162047
161285
160361
159238
157867
156196
154219
165388
165163
165066
165018
164946
164833
164681
164489
164254
163970
163624
163204
162693
162073
161322
160412
159305
157955
156311
154364
165138
165112
165131
165116
165043
164923
164765
164567
164326
164037
163688
163266
162755
162138
161393
160491
159396
158064
156444
154524
164593
164758
164874
164906
164873
164790
164661
164488
164267
163995
163660
163251
162751
162146
161412
160524
159445
158132
156536
154641
165714
165560
165396
165257
165125
164980
164808
164603
164360
164073
163727
163309
162804
162195
161461
160574
159499
158194
156612
154728
165801
165644
165492
165376
165268
165145
164994
164812
164596
164341
164034
163665
163222
162694
162066
161318
160430
159378
158142
156721
164671
164844
164970
165020
165008
164945
164838
164687
164494
164255
163960
163601
163166
162642
162016
161269
160379
159321
158076
156644
165188
165206
165243
165240
165183
165082
164941
164765
164550
164292
163983
163612
163166
162632
161995
161235
160331
159257
157990
156535
165411
165250
165169
165135
165083
164990
164858
164688
164479
164227
163921
163551
163105
162569
161927
161160
160245
159156
157868
156389
165569
165327
165198
165151
165100
165009
164875
164702
164488
164229
163918
163541
163087
162542
161890
161110
160179
159070
157759
156252
165483
165305
165188
165135
165079
164986
164851
164676
164460
164199
163884
163504
163045
162494
161833
161043
160099
158973
157641
156109
165429
165294
165192
165135
165072
164977
164841
164665
164447
164183
163865
163482
163018
162460
161791
160990
160033
158891
157539
155985
165403
165282
165190
165131
165065
164967
164830
164652
164433
164167
163847
163460
162992
162429
161753
160943
159975
158821
157452
155881
165388
165272
165186
165128
165060
164961
164823
164644
164424
164157
163835
163445
162975
162408
161728
160912
159937
158773
157393
155809
165381
165267
165183
165127
165058
164957
164819
164640
164419
164151
163828
163438
162966
162398
161715
160896
159917
158748
157362
155772
165381
165267
165183
165127
165058
164957
164819
164640
164419
164151
163828
163438
162966
162398
161715
160896
159917
158748
157362
155772
165388
165272
165186
165128
165060
164960
164822
164644
164424
164157
163835
163445
162975
162408
161728
160912
159937
158773
157393
155809
165403
165282
165190
165131
165065
164967
164830
164652
164433
164167
163847
163459
162992
162429
161753
160943
159975
158820
157452
155881
165429
165293
165192
165135
165072
164977
164841
164664
164447
164183
163865
163481
163018
162460
161791
160990
160033
158891
157538
155985
165483
165305
165188
165135
165079
164986
164851
164675
164459
164198
163884
163504
163045
162494
161833
161043
160098
158973
157640
156108
165569
165327
165198
165151
165099
165008
164875
164701
164488
164229
163917
163541
163087
162542
161889
161110
160179
159070
157759
156251
165411
165250
165169
165135
165082
164990
164858
164688
164479
164226
163921
163551
163105
162569
161927
161160
160245
159155
157868
156388
165188
165206
165243
165240
165183
165081
164941
164764
164550
164292
163983
163612
163166
162632
161995
161235
160331
159256
157990
156535
164671
164844
164970
165019
165007
164944
164837
164687
164494
164254
163960
163601
163166
162642
162016
161269
160378
159320
158075
156643
165801
165644
165492
165376
165268
165144
164993
164811
164596
164340
164033
163664
163222
162694
162066
161318
160430
159378
158142
156721
165901
165746
165597
165487
165389
165279
165146
164988
164804
164587
164329
164021
163654
163221
162711
162113
161415
160606
159681
158650
164768
164945
165077
165133
165130
165082
164994
164869
164708
164508
164263
163964
163605
163176
162669
162071
161371
160558
159626
158585
165279
165313
165358
165359
165310
165222
165102
164950
164768
164550
164290
163981
163611
163172
162654
162045
161333
160505
159555
158493
165478
165364
165298
165265
165217
165138
165026
164881
164705
164492
164236
163928
163559
163118
162596
161981
161260
160419
159452
158368
165610
165433
165320
165276
165232
165157
165044
164897
164716
164498
164236
163922
163546
163097
162565
161939
161203
160346
159357
158249
165731
165494
165344
165277
165222
165140
165025
164874
164691
164470
164206
163889
163508
163054
162515
161879
161132
160259
159253
158123
165651
165473
165338
165269
165210
165128
165013
164862
164677
164454
164187
163867
163482
163022
162475
161829
161070
160184
159160
158011
165602
165462
165344
165271
165206
165121
165003
164851
164663
164438
164169
163845
163456
162990
162437
161784
161015
160117
159080
157916
165580
165453
165344
165270
165202
165114
164995
164842
164654
164427
164156
163830
163438
162969
162412
161752
160977
160071
159023
157849
165571
165448
165342
165270
165200
165111
164991
164838
164649
164422
164149
163822
163429
162958
162398
161736
160957
160046
158994
157814
165571
165448
165342
165270
165200
165111
164991
164838
164649
164422
164149
163822
163429
162958
162398
161736
160957
160046
158994
157814
165580
165453
165344
165270
165202
165114
164995
164842
164654
164427
164156
163830
163438
162969
162412
161752
160977
160070
159023
157849
165602
165462
165344
165271
165206
165120
165003
164850
164663
164438
164168
163845
163456
162990
162437
161784
161015
160117
159080
157916
165651
165472
165338
165268
165210
165128
165013
164862
164677
164454
164187
163867
163482
163022
162475
161829
161070
160184
159160
158011
165731
165494
165344
165276
165221
165140
165024
164874
164690
164470
164206
163888
163508
163054
162515
161879
161132
160259
159253
158122
165610
165432
165320
165275
165232
165156
165044
164896
164716
164498
164236
163922
163545
163097
162565
161938
161203
160345
159357
158248
165477
165364
165298
165265
165217
165137
165025
164881
164704
164492
164236
163928
163559
163118
162596
161981
161259
160419
159451
158367
165279
165313
165358
165358
165309
165221
165101
164950
164767
164549
164290
163980
163611
163172
162654
162045
161332
160505
159555
158493
164768
164945
165077
165132
165129
165081
164994
164869
164707
164507
164262
163964
163605
163176
162669
162071
161371
160558
159626
158585
165901
165746
165597
165487
165388
165278
165145
164988
164803
164586
164328
164020
163654
163221
162711
162113
161415
160605
159681
158650
166017
165863
165721
165622
165539
165449
165340
165213
165065
164892
164688
164445
164158
163821
163430
162979
162461
161873
161220
160514
164882
165062
165201
165268
165280
165251
165187
165092
164968
164812
164621
164388
164108
163777
163389
162938
162420
161830
161171
160457
165391
165432
165486
165497
165461
165392
165296
165175
165028
164855
164649
164405
164115
163775
163377
162916
162387
161785
161111
160379
165583
165486
165434
165408
165372
165310
165222
165108
164968
164800
164599
164357
164068
163726
163326
162860
162323
161711
161024
160273
165694
165560
165468
165429
165394
165335
165246
165128
164983
164810
164603
164356
164060
163711
163302
162826
162278
161651
160946
160174
165793
165615
165486
165425
165381
165319
165228
165108
164961
164786
164576
164327
164028
163675
163260
162776
162218
161579
160860
160070
165895
165667
165509
165432
165378
165312
165219
165098
164950
164772
164560
164308
164006
163647
163225
162733
162165
161515
160782
159976
165823
165647
165506
165427
165370
165301
165208
165086
164936
164756
164542
164287
163981
163618
163191
162692
162116
161456
160712
159894
165782
165640
165512
165431
165369
165297
165202
165079
164927
164745
164530
164272
163964
163598
163167
162663
162081
161414
160662
159836
165767
165635
165514
165432
165367
165293
165198
165074
164922
164740
164523
164264
163955
163587
163154
162648
162062
161392
160635
159804
165767
165635
165514
165432
165367
165293
165197
165074
164922
164739
164523
164264
163955
163587
163154
162648
162062
161392
160635
159804
165782
165640
165512
165431
165369
165297
165202
165079
164927
164745
164530
164272
163964
163598
163167
162663
162081
161414
160662
159835
165823
165647
165505
165427
165370
165301
165208
165086
164936
164756
164542
164286
163981
163618
163191
162692
162116
161456
160712
159894
165895
165667
165509
165431
165378
165312
165219
165098
164949
164772
164560
164307
164006
163647
163225
162734
162165
161515
160781
159976
165792
165615
165485
165425
165381
165318
165227
165108
164961
164785
164576
164326
164028
163675
163260
162776
162218
161579
160859
160069
165694
165560
165468
165428
165393
165334
165245
165128
164983
164810
164603
164355
164060
163711
163302
162826
162278
161651
160946
160174
165583
165486
165434
165408
165371
165309
165222
165108
164968
164800
164598
164357
164068
163726
163326
162860
162323
161711
161023
160272
165391
165431
165486
165496
165460
165391
165295
165174
165028
164854
164649
164405
164115
163774
163377
162916
162386
161784
161111
160378
164882
165063
165201
165267
165279
165250
165187
165092
164967
164811
164620
164388
164108
163777
163389
162938
162419
161829
161171
160457
166017
165864
165721
165621
165538
165448
165340
165212
165064
164892
164688
164445
164158
163821
163430
162979
162460
161873
161219
160513
166145
165994
165858
165769
165701
165630
165546
165449
165338
165211
165063
164887
164680
164441
164168
163859
163512
163127
162711
162278
165009
165193
165339
165416
165443
165433
165394
165329
165242
165132
164997
164832
164633
164400
164130
163822
163475
163088
162669
162230
165518
165562
165626
165647
165626
165575
165504
165413
165305
165177
165028
164852
164644
164402
164123
163806
163449
163052
162620
162166
165708
165618
165577
165562
165539
165496
165432
165349
165248
165126
164981
164808
164602
164360
164079
163759
163396
162991
162549
162080
165813
165695
165618
165588
165564
165523
165459
165372
165266
165140
164990
164812
164600
164352
164064
163735
163362
162946
162490
162004
165893
165754
165646
165593
165558
165512
165446
165357
165249
165121
164969
164789
164575
164324
164031
163696
163316
162890
162423
161923
165976
165801
165664
165596
165554
165506
165439
165350
165241
165111
164957
164775
164559
164303
164005
163664
163276
162841
162363
161851
166069
165848
165686
165604
165553
165501
165431
165341
165229
165097
164942
164758
164539
164280
163978
163631
163237
162795
162309
161787
166008
165833
165685
165601
165547
165494
165424
165333
165221
165087
164931
164745
164524
164263
163958
163607
163208
162761
162269
161741
165978
165830
165691
165605
165548
165492
165421
165329
165216
165082
164925
164738
164516
164253
163946
163593
163193
162743
162248
161716
165978
165830
165691
165605
165548
165492
165421
165329
165216
165082
164925
164738
164516
164253
163946
163593
163193
162743
162248
161716
166008
165833
165684
165601
165547
165493
165424
165333
165220
165087
164931
164745
164524
164263
163958
163607
163208
162761
162269
161741
166069
165848
165686
165603
165553
165500
165431
165340
165229
165097
164942
164758
164539
164280
163978
163631
163237
162795
162309
161787
165976
165801
165664
165596
165554
165506
165439
165350
165240
165110
164957
164775
164559
164303
164006
163664
163276
162841
162363
161851
165893
165754
165646
165593
165558
165512
165445
165357
165249
165121
164969
164789
164575
164324
164031
163696
163316
162890
162422
161922
165813
165695
165618
165588
165563
165522
165458
165372
165266
165140
164990
164812
164600
164351
164064
163735
163362
162945
162489
162003
165707
165618
165577
165562
165538
165495
165432
165349
165247
165126
164981
164808
164602
164360
164079
163759
163396
162991
162549
162080
165518
165562
165626
165647
165625
165574
165503
165413
165304
165177
165028
164851
164644
164401
164123
163806
163448
163051
162620
162166
165009
165193
165338
165415
165442
165432
165393
165329
165242
165132
164997
164831
164633
164400
164130
163822
163474
163088
162669
162230
166145
165994
165858
165769
165700
165629
165545
165448
165338
165211
165062
164886
164680
164441
164168
163859
163511
163126
162711
162278
166283
166135
166005
165927
165875
165824
165765
165700
165628
165549
165457
165349
165223
165081
164923
164748
164558
164355
164147
163946
165146
165333
165486
165574
165616
165627
165613
165581
165533
165470
165392
165294
165177
165041
164886
164713
164524
164320
164110
163904
165655
165703
165774
165807
165800
165770
165724
165666
165596
165517
165424
165316
165190
165045
164882
164701
164503
164291
164071
163853
165845
165759
165728
165725
165716
165692
165654
165604
165541
165468
165380
165276
165153
165009
164845
164662
164460
164242
164014
163785
165948
165837
165772
165754
165744
165722
165683
165630
165563
165485
165393
165285
165156
165007
164837
164647
164438
164211
163972
163730
166024
165900
165806
165764
165741
165714
165673
165618
165550
165470
165378
165268
165139
164988
164815
164620
164406
164172
163926
163674
166091
165951
165834
165774
165742
165713
165671
165615
165546
165465
165371
165261
165130
164976
164799
164600
164380
164140
163886
163625
166168
165993
165851
165777
165740
165708
165665
165608
165538
165456
165361
165249
165116
164960
164780
164578
164353
164110
163850
163583
166260
166040
165871
165785
165741
165705
165661
165604
165532
165449
165353
165240
165106
164949
164767
164562
164335
164087
163824
163552
166217
166029
165868
165782
165737
165702
165658
165600
165528
165445
165348
165235
165100
164942
164759
164553
164324
164075
163810
163535
166217
166029
165868
165782
165737
165702
165658
165600
165528
165445
165348
165235
165100
164942
164759
164553
164324
164075
163810
163535
166260
166040
165871
165785
165741
165705
165661
165603
165532
165449
165353
165240
165106
164949
164767
164562
164335
164087
163824
163552
166168
165993
165850
165777
165740
165707
165665
165608
165538
165456
165361
165249
165116
164960
164780
164578
164353
164110
163850
163582
166091
165951
165833
165773
165742
165712
165671
165615
165546
165465
165371
165261
165129
164976
164799
164600
164380
164140
163886
163625
166023
165900
165806
165763
165740
165713
165673
165617
165550
165470
165377
165268
165139
164988
164815
164620
164406
164172
163925
163673
165948
165837
165772
165753
165743
165721
165683
165629
165563
165485
165393
165284
165156
165007
164837
164647
164438
164211
163972
163730
165845
165759
165727
165724
165715
165692
165654
165603
165541
165467
165380
165276
165153
165009
164845
164662
164460
164242
164014
163785
165655
165703
165774
165806
165800
165769
165723
165665
165596
165516
165424
165316
165190
165045
164882
164701
164503
164291
164070
163852
165146
165333
165485
165574
165615
165626
165613
165580
165532
165470
165391
165294
165177
165041
164886
164713
164524
164320
164110
163904
166283
166135
166005
165927
165874
165823
165765
165699
165628
165548
165456
165348
165223
165081
164923
164748
164558
164355
164147
163945
166427
166282
166158
166091
166054
166023
165991
165958
165925
165893
165857
165816
165770
165721
165671
165623
165577
165539
165512
165509
165290
165479
165639
165738
165796
165827
165839
165839
165830
165815
165793
165763
165725
165682
165637
165591
165546
165507
165480
165474
165800
165850
165928
165972
165981
165971
165951
165925
165895
165862
165827
165786
165740
165690
165636
165583
165532
165486
165451
165435
165990
165907
165883
165891
165898
165895
165883
165864
165842
165816
165786
165750
165707
165658
165605
165551
165498
165449
165408
165385
166094
165986
165929
165923
165928
165926
165914
165893
165866
165837
165803
165763
165716
165663
165605
165546
165487
165431
165384
165351
166169
166051
165967
165936
165927
165920
165906
165884
165857
165826
165792
165752
165705
165651
165592
165530
165468
165409
165357
165318
166233
166105
166000
165950
165932
165922
165907
165885
165857
165826
165791
165751
165703
165648
165587
165522
165457
165394
165337
165293
166298
166152
166025
165960
165935
165922
165906
165883
165854
165822
165786
165746
165698
165641
165579
165512
165445
165380
165320
165272
166380
166193
166038
165962
165934
165920
165905
165881
165852
165819
165783
165742
165694
165637
165574
165506
165437
165371
165309
165258
166492
166238
166050
165965
165934
165919
165903
165879
165849
165816
165780
165740
165692
165635
165571
165502
165433
165365
165303
165250
166492
166238
166050
165965
165934
165919
165903
165879
165849
165816
165780
165740
165692
165635
165571
165502
165433
165365
165303
165250
166380
166193
166038
165962
165934
165920
165904
165881
165851
165819
165783
165742
165694
165637
165574
165506
165437
165370
165309
165258
166298
166152
166024
165959
165934
165922
165906
165883
165854
165821
165786
165746
165698
165641
165579
165512
165445
165380
165320
165272
166233
166105
166000
165949
165931
165922
165907
165885
165857
165825
165791
165751
165703
165648
165587
165522
165457
165394
165337
165293
166168
166051
165967
165935
165927
165920
165906
165884
165856
165826
165791
165752
165705
165651
165592
165530
165468
165409
165356
165318
166094
165986
165929
165922
165927
165925
165913
165892
165866
165836
165802
165762
165716
165663
165605
165546
165487
165431
165383
165351
165990
165907
165883
165891
165897
165894
165882
165864
165841
165816
165786
165750
165707
165658
165605
165551
165498
165448
165408
165385
165800
165850
165928
165972
165980
165970
165950
165924
165894
165862
165826
165786
165740
165690
165636
165583
165532
165486
165450
165435
165290
165479
165638
165738
165795
165826
165839
165838
165830
165814
165792
165762
165725
165683
165637
165591
165546
165507
165479
165473
166427
166282
166158
166091
166053
166022
165990
165957
165925
165892
165856
165816
165770
165721
165671
165623
165577
165538
165512
165509
166575
166431
166314
166258
166236
166225
166218
166217
166223
166236
166256
166280
166310
166350
166403
166472
166559
166668
166802
166970
165437
165628
165794
165905
165978
166029
166067
166098
166128
166159
166192
166227
166266
166313
166370
166442
166531
166640
166774
166940
165948
166000
166085
166139
166163
166174
166179
166185
166194
166208
166228
166253
166284
166323
166373
166439
166522
166626
166754
166914
166139
166059
166040
166059
166081
166099
166113
166126
166143
166164
166190
166220
166254
166296
166348
166414
166497
166600
166726
166881
166245
166139
166088
166092
166113
166131
166145
166157
166170
166188
166210
166237
166268
166307
166356
166418
166498
166596
166718
166868
166322
166206
166128
166107
166114
166128
166140
166151
166163
166181
166204
166231
166264
166303
166352
166414
166492
166590
166709
166856
166388
166262
166163
166123
166121
166132
166145
166156
166168
166185
166208
166237
166270
166308
166356
166417
166494
166591
166709
166853
166456
166312
166190
166136
166126
166135
166147
166157
166169
166186
166209
166238
166271
166310
166358
166418
166495
166591
166709
166851
166541
166356
166205
166141
166129
166137
166148
166159
166171
166188
166211
166240
166274
166314
166361
166422
166499
166594
166712
166853
166656
166403
166220
166146
166131
166138
166150
166160
166172
166188