/*--------------------------------*- C++ -*----------------------------------*\
  =========                 |
  \\      /  F ield         | OpenFOAM: The Open Source CFD Toolbox
   \\    /   O peration     | Website:  https://openfoam.org
    \\  /    A nd           | Version:  10
     \\/     M anipulation  |
\*---------------------------------------------------------------------------*/
FoamFile
{
    format      ascii;
    class       surfaceScalarField;
    location    "100";
    object      phi;
}
// * * * * * * * * * * * * * * * * * * * * * * * * * * * * * * * * * * * * * //

dimensions      [1 0 -1 0 0 0 0];

internalField   nonuniform List<scalar> 
324400
(
0.00100236
-3.65839e-06
-4.2753e-06
0.00100308
2.70628e-07
-9.87541e-07
0.00100339
7.87867e-07
-1.09733e-06
0.00100358
1.17225e-06
-1.35949e-06
0.00100379
1.50304e-06
-1.7115e-06
0.00100432
1.7132e-06
-2.24558e-06
0.00100548
1.81559e-06
-2.97352e-06
0.00100751
1.85393e-06
-3.8808e-06
0.00101061
1.8616e-06
-4.97051e-06
0.00101503
1.85365e-06
-6.27365e-06
0.00102104
1.83517e-06
-7.84223e-06
0.00102898
1.81035e-06
-9.74707e-06
0.00103928
1.78592e-06
-1.2086e-05
0.00105251
1.77079e-06
-1.50013e-05
0.00106944
1.77548e-06
-1.87122e-05
0.00109121
1.81357e-06
-2.35773e-05
0.00111953
1.90587e-06
-3.02295e-05
0.00115733
2.08833e-06
-3.98908e-05
0.00121007
2.45189e-06
-5.5195e-05
2.86834e-06
-8.1865e-05
0.00128907
0.000996507
-2.17455e-06
-1.08709e-05
0.00100211
5.54919e-07
-5.89265e-06
0.00100626
1.56873e-06
-4.93488e-06
0.0010103
1.89564e-06
-4.76111e-06
0.0010145
2.13858e-06
-4.84519e-06
0.00101905
2.33127e-06
-5.16506e-06
0.00102411
2.46153e-06
-5.71673e-06
0.0010299
2.55077e-06
-6.48267e-06
0.00103659
2.62595e-06
-7.46022e-06
0.00104441
2.7027e-06
-8.67037e-06
0.00105361
2.78763e-06
-1.01567e-05
0.00106452
2.88669e-06
-1.19841e-05
0.00107754
3.00991e-06
-1.42443e-05
0.00109321
3.1724e-06
-1.70713e-05
0.00111226
3.39413e-06
-2.0672e-05
0.00113576
3.70141e-06
-2.53859e-05
0.00116535
4.13107e-06
-3.18138e-05
0.00120381
4.73867e-06
-4.11176e-05
0.0012565
5.6218e-06
-5.5861e-05
6.80606e-06
-8.14603e-05
0.00133402
0.000996811
-1.46774e-08
-1.09641e-05
0.00100375
6.58227e-07
-7.03914e-06
0.00101016
1.24409e-06
-6.08499e-06
0.00101633
1.51065e-06
-5.78459e-06
0.00102254
1.67427e-06
-5.74501e-06
0.00102897
1.82706e-06
-5.92029e-06
0.00103577
1.97344e-06
-6.31638e-06
0.00104314
2.11599e-06
-6.93267e-06
0.00105127
2.26654e-06
-7.77237e-06
0.00106039
2.43749e-06
-8.85624e-06
0.00107076
2.63865e-06
-1.02265e-05
0.00108272
2.87997e-06
-1.19464e-05
0.00109666
3.17525e-06
-1.41054e-05
0.00111312
3.54441e-06
-1.68334e-05
0.00113283
4.0148e-06
-2.0331e-05
0.00115683
4.62307e-06
-2.49288e-05
0.00118676
5.41922e-06
-3.12154e-05
0.00122536
6.47407e-06
-4.03337e-05
0.00127791
7.89818e-06
-5.48331e-05
9.76626e-06
-8.00714e-05
0.00135502
0.000998587
2.56905e-07
-1.0878e-05
0.00100599
6.47462e-07
-7.39366e-06
0.00101285
1.12813e-06
-6.74374e-06
0.00101947
1.53458e-06
-6.65012e-06
0.0010261
1.86143e-06
-6.8149e-06
0.00103295
2.15081e-06
-7.1777e-06
0.00104022
2.42082e-06
-7.72228e-06
0.0010481
2.67964e-06
-8.44314e-06
0.00105677
2.93783e-06
-9.34596e-06
0.00106645
3.20898e-06
-1.04555e-05
0.0010774
3.50816e-06
-1.18182e-05
0.00108993
3.85169e-06
-1.35013e-05
0.00110444
4.25888e-06
-1.55964e-05
0.00112147
4.75436e-06
-1.82341e-05
0.00114172
5.3705e-06
-2.16136e-05
0.00116626
6.14985e-06
-2.60633e-05
0.0011967
7.14832e-06
-3.21676e-05
0.00123579
8.43941e-06
-4.1062e-05
0.00128886
1.01205e-05
-5.52905e-05
1.22501e-05
-8.02031e-05
0.00136657
0.000998552
3.08526e-07
-1.06993e-05
0.00100575
6.59893e-07
-7.20637e-06
0.00101242
1.02328e-06
-6.56459e-06
0.00101899
1.35124e-06
-6.39703e-06
0.00102569
1.62655e-06
-6.46012e-06
0.00103269
1.86871e-06
-6.72469e-06
0.00104019
2.09738e-06
-7.17578e-06
0.00104835
2.32565e-06
-7.80697e-06
0.00105735
2.56508e-06
-8.62588e-06
0.00106738
2.82869e-06
-9.65878e-06
0.00107871
3.13143e-06
-1.09518e-05
0.00109164
3.49021e-06
-1.257e-05
0.00110658
3.92449e-06
-1.46024e-05
0.00112405
4.45841e-06
-1.71761e-05
0.00114478
5.12342e-06
-2.04874e-05
0.00116983
5.96061e-06
-2.48609e-05
0.00120083
7.02309e-06
-3.08776e-05
0.00124056
8.37832e-06
-3.96688e-05
0.00129435
1.01106e-05
-5.37749e-05
1.22857e-05
-7.85444e-05
0.00137285
0.000998466
2.72968e-07
-1.06164e-05
0.00100567
5.69664e-07
-7.11541e-06
0.00101237
8.47016e-07
-6.52427e-06
0.00101901
1.10493e-06
-6.39878e-06
0.00102579
1.34346e-06
-6.49625e-06
0.00103289
1.57092e-06
-6.80169e-06
0.00104049
1.79665e-06
-7.29984e-06
0.00104876
2.02888e-06
-7.97824e-06
0.00105789
2.27641e-06
-8.83955e-06
0.00106807
2.54931e-06
-9.90658e-06
0.00107956
2.85947e-06
-1.12226e-05
0.00109268
3.22107e-06
-1.28506e-05
0.00110783
3.65132e-06
-1.48776e-05
0.00112555
4.17191e-06
-1.74296e-05
0.00114656
4.81091e-06
-2.07012e-05
0.00117193
5.60438e-06
-2.50155e-05
0.00120331
6.59762e-06
-3.09511e-05
0.00124348
7.84561e-06
-3.96362e-05
0.00129778
9.40992e-06
-5.36075e-05
1.13409e-05
-7.82231e-05
0.00137695
0.000998371
2.12943e-07
-1.05759e-05
0.00100556
4.43752e-07
-7.0584e-06
0.00101223
6.53309e-07
-6.47958e-06
0.00101884
8.47451e-07
-6.36042e-06
0.0010256
1.03156e-06
-6.44594e-06
0.00103268
1.21117e-06
-6.72811e-06
0.00104028
1.39138e-06
-7.1977e-06
0.00104858
1.57785e-06
-7.84373e-06
0.00105774
1.77772e-06
-8.66908e-06
0.00106799
1.99941e-06
-9.69703e-06
0.00107957
2.25266e-06
-1.09717e-05
0.00109279
2.54911e-06
-1.25569e-05
0.00110808
2.90318e-06
-1.45402e-05
0.00112597
3.33301e-06
-1.70471e-05
0.00114719
3.86146e-06
-2.02716e-05
0.00117281
4.51704e-06
-2.45352e-05
0.00120449
5.33452e-06
-3.04147e-05
0.00124501
6.35487e-06
-3.9036e-05
0.00129973
7.62167e-06
-5.29328e-05
9.18246e-06
-7.74714e-05
0.00137936
0.000998295
1.44412e-07
-1.05546e-05
0.00100546
3.0134e-07
-7.02463e-06
0.00101212
4.42893e-07
-6.4504e-06
0.00101873
5.72994e-07
-6.3397e-06
0.00102549
6.97235e-07
-6.42815e-06
0.00103259
8.20831e-07
-6.70928e-06
0.00104021
9.47431e-07
-7.17768e-06
0.00104853
1.08046e-06
-7.8236e-06
0.00105773
1.22444e-06
-8.64939e-06
0.00106802
1.38508e-06
-9.67755e-06
0.00107965
1.56915e-06
-1.09516e-05
0.00109295
1.78477e-06
-1.25349e-05
0.00110833
2.04206e-06
-1.45139e-05
0.00112632
2.35361e-06
-1.70131e-05
0.00114767
2.73504e-06
-2.02251e-05
0.00117345
3.2055e-06
-2.447e-05
0.00120532
3.78788e-06
-3.03232e-05
0.00124607
4.50855e-06
-3.89086e-05
0.00130106
5.39299e-06
-5.2758e-05
6.47762e-06
-7.72496e-05
0.00138101
0.000998245
7.29611e-08
-1.05435e-05
0.0010054
1.52443e-07
-7.00586e-06
0.00101205
2.24121e-07
-6.43278e-06
0.00101866
2.89847e-07
-6.32675e-06
0.00102542
3.52747e-07
-6.4169e-06
0.00103251
4.15863e-07
-6.69547e-06
0.00104014
4.81068e-07
-7.15862e-06
0.00104846
5.49836e-07
-7.79765e-06
0.00105768
6.24277e-07
-8.61508e-06
0.00106799
7.07349e-07
-9.63323e-06
0.00107965
8.02664e-07
-1.08956e-05
0.00109298
9.1449e-07
-1.24653e-05
0.0011084
1.048e-06
-1.4429e-05
0.00112646
1.20956e-06
-1.6911e-05
0.00114789
1.40703e-06
-2.01036e-05
0.00117377
1.65e-06
-2.43268e-05
0.00120576
1.94986e-06
-3.01557e-05
0.00124667
2.31967e-06
-3.87136e-05
0.00130182
2.77082e-06
-5.25311e-05
3.33061e-06
-7.69975e-05
0.00138196
0.00099822
4.1468e-10
-1.05387e-05
0.00100537
8.9526e-10
-6.99726e-06
0.00101201
1.39247e-09
-6.42432e-06
0.00101862
1.94134e-09
-6.32041e-06
0.00102538
2.48763e-09
-6.41181e-06
0.00103248
3.04998e-09
-6.68988e-06
0.00104011
3.64792e-09
-7.15151e-06
0.00104844
4.22732e-09
-7.78874e-06
0.00105766
4.73614e-09
-8.60422e-06
0.00106798
5.18651e-09
-9.62016e-06
0.00107966
5.61895e-09
-1.08799e-05
0.00109301
6.05061e-09
-1.24465e-05
0.00110846
6.46743e-09
-1.44065e-05
0.00112654
6.85442e-09
-1.68842e-05
0.00114802
7.21659e-09
-2.00718e-05
0.00117395
7.57741e-09
-2.42891e-05
0.001206
7.96831e-09
-3.01108e-05
0.00124697
8.42112e-09
-3.86596e-05
0.00130219
8.95123e-09
-5.24649e-05
9.63531e-09
-7.69271e-05
0.00138244
0.00099822
-7.21355e-08
-1.05387e-05
0.00100537
-1.50637e-07
-6.99726e-06
0.00101201
-2.21355e-07
-6.42431e-06
0.00101862
-2.85998e-07
-6.32041e-06
0.00102538
-3.47803e-07
-6.41179e-06
0.00103248
-4.09778e-07
-6.68986e-06
0.00104011
-4.73771e-07
-7.15149e-06
0.00104844
-5.41386e-07
-7.78871e-06
0.00105766
-6.14831e-07
-8.60417e-06
0.00106798
-6.97023e-07
-9.62011e-06
0.00107966
-7.9148e-07
-1.08798e-05
0.00109301
-9.02438e-07
-1.24465e-05
0.00110846
-1.0351e-06
-1.44065e-05
0.00112654
-1.19587e-06
-1.68842e-05
0.00114802
-1.3926e-06
-2.00718e-05
0.00117395
-1.63484e-06
-2.42891e-05
0.001206
-1.93392e-06
-3.01108e-05
0.00124697
-2.30284e-06
-3.86596e-05
0.00130219
-2.75298e-06
-5.24649e-05
-3.31153e-06
-7.69271e-05
0.00138244
0.000998245
-1.43657e-07
-1.05435e-05
0.0010054
-2.99685e-07
-7.00586e-06
0.00101205
-4.40303e-07
-6.43279e-06
0.00101866
-5.69329e-07
-6.32675e-06
0.00102542
-6.92467e-07
-6.41687e-06
0.00103252
-8.14889e-07
-6.69542e-06
0.00104014
-9.40238e-07
-7.15855e-06
0.00104846
-1.0721e-06
-7.79756e-06
0.00105768
-1.2151e-06
-8.61495e-06
0.00106799
-1.37488e-06
-9.63309e-06
0.00107965
-1.55811e-06
-1.08955e-05
0.00109298
-1.77289e-06
-1.24652e-05
0.0011084
-2.02938e-06
-1.44289e-05
0.00112646
-2.34018e-06
-1.69109e-05
0.00114789
-2.7209e-06
-2.01035e-05
0.00117377
-3.19063e-06
-2.43267e-05
0.00120576
-3.77222e-06
-3.01556e-05
0.00124667
-4.49199e-06
-3.87136e-05
0.00130182
-5.37539e-06
-5.25311e-05
-6.45881e-06
-7.69976e-05
0.00138196
0.000998295
-2.12269e-07
-1.05546e-05
0.00100546
-4.42219e-07
-7.02463e-06
0.00101212
-6.50927e-07
-6.4504e-06
0.00101873
-8.4403e-07
-6.33969e-06
0.00102549
-1.02702e-06
-6.42808e-06
0.00103259
-1.20542e-06
-6.70916e-06
0.00104021
-1.38435e-06
-7.17754e-06
0.00104853
-1.56965e-06
-7.8234e-06
0.00105773
-1.76856e-06
-8.64912e-06
0.00106802
-1.98939e-06
-9.67725e-06
0.00107965
-2.24178e-06
-1.09514e-05
0.00109295
-2.5374e-06
-1.25347e-05
0.00110833
-2.89072e-06
-1.45137e-05
0.00112632
-3.3199e-06
-1.7013e-05
0.00114767
-3.84774e-06
-2.0225e-05
0.00117345
-4.50265e-06
-2.44699e-05
0.00120532
-5.31935e-06
-3.03231e-05
0.00124607
-6.33878e-06
-3.89086e-05
0.00130106
-7.6045e-06
-5.2758e-05
-9.16405e-06
-7.72497e-05
0.00138101
0.00099837
-2.72458e-07
-1.05759e-05
0.00100556
-5.68436e-07
-7.05843e-06
0.00101223
-8.4503e-07
-6.47961e-06
0.00101884
-1.10193e-06
-6.36042e-06
0.0010256
-1.33927e-06
-6.44584e-06
0.00103268
-1.56542e-06
-6.72793e-06
0.00104029
-1.78985e-06
-7.19745e-06
0.00104858
-2.02098e-06
-7.84339e-06
0.00105774
-2.26762e-06
-8.66866e-06
0.00106799
-2.53969e-06
-9.69658e-06
0.00107957
-2.84901e-06
-1.09713e-05
0.00109279
-3.2098e-06
-1.25565e-05
0.00110808
-3.63936e-06
-1.45398e-05
0.00112597
-4.15939e-06
-1.70467e-05
0.00114719
-4.79785e-06
-2.02713e-05
0.00117281
-5.59069e-06
-2.45349e-05
0.00120449
-6.58316e-06
-3.04146e-05
0.00124501
-7.83025e-06
-3.90359e-05
0.00129973
-9.39353e-06
-5.29327e-05
-1.13234e-05
-7.74713e-05
0.00137936
0.000998466
-3.0821e-07
-1.06164e-05
0.00100567
-6.58998e-07
-7.11547e-06
0.00101237
-1.02181e-06
-6.52433e-06
0.00101902
-1.34883e-06
-6.39877e-06
0.00102579
-1.62285e-06
-6.49607e-06
0.00103289
-1.86357e-06
-6.80136e-06
0.00104049
-2.09093e-06
-7.29939e-06
0.00104876
-2.31817e-06
-7.97766e-06
0.00105789
-2.55673e-06
-8.8389e-06
0.00106807
-2.81949e-06
-9.90594e-06
0.00107956
-3.12144e-06
-1.1222e-05
0.00109268
-3.47956e-06
-1.285e-05
0.00110783
-3.91332e-06
-1.4877e-05
0.00112555
-4.44681e-06
-1.74289e-05
0.00114656
-5.11135e-06
-2.07006e-05
0.00117193
-5.94794e-06
-2.50151e-05
0.00120331
-7.00964e-06
-3.09509e-05
0.00124348
-8.36395e-06
-3.9636e-05
0.00129778
-1.00953e-05
-5.36074e-05
-1.22694e-05
-7.82231e-05
0.00137695
0.000998551
-2.56893e-07
-1.06994e-05
0.00100575
-6.47102e-07
-7.20653e-06
0.00101242
-1.12737e-06
-6.56476e-06
0.00101899
-1.53295e-06
-6.39706e-06
0.00102569
-1.85832e-06
-6.45989e-06
0.00103269
-2.14611e-06
-6.72421e-06
0.00104019
-2.41494e-06
-7.1751e-06
0.00104835
-2.67293e-06
-7.80609e-06
0.00105735
-2.93029e-06
-8.62487e-06
0.00106738
-3.20058e-06
-9.65781e-06
0.00107871
-3.49901e-06
-1.09509e-05
0.00109164
-3.84202e-06
-1.25692e-05
0.00110658
-4.24888e-06
-1.46015e-05
0.00112405
-4.74411e-06
-1.71751e-05
0.00114478
-5.35994e-06
-2.04864e-05
0.00116983
-6.13881e-06
-2.486e-05
0.00120084
-7.13658e-06
-3.08769e-05
0.00124057
-8.4268e-06
-3.96683e-05
0.00129435
-1.0107e-05
-5.37745e-05
-1.22357e-05
-7.8544e-05
0.00137286
0.000998587
1.43244e-08
-1.08782e-05
0.00100599
-6.58617e-07
-7.39401e-06
0.00101285
-1.24437e-06
-6.74409e-06
0.00101948
-1.51012e-06
-6.65015e-06
0.0010261
-1.67203e-06
-6.81441e-06
0.00103295
-1.82308e-06
-7.17682e-06
0.00104022
-1.96837e-06
-7.7212e-06
0.0010481
-2.11019e-06
-8.44192e-06
0.00105677
-2.26001e-06
-9.34465e-06
0.00106646
-2.43023e-06
-1.04542e-05
0.0010774
-2.63083e-06
-1.1817e-05
0.00108993
-2.87176e-06
-1.35002e-05
0.00110444
-3.1668e-06
-1.55953e-05
0.00112147
-3.53579e-06
-1.82329e-05
0.00114173
-4.00601e-06
-2.16125e-05
0.00116626
-4.61398e-06
-2.60623e-05
0.0011967
-5.40963e-06
-3.21666e-05
0.0012358
-6.46379e-06
-4.10612e-05
0.00128887
-7.8871e-06
-5.52897e-05
-9.75434e-06
-8.02024e-05
0.00136658
0.000996811
2.17382e-06
-1.09645e-05
0.00100375
-5.56159e-07
-7.03998e-06
0.00101017
-1.57028e-06
-6.08592e-06
0.00101634
-1.89638e-06
-5.78487e-06
0.00102255
-2.1377e-06
-5.74421e-06
0.00102897
-2.32886e-06
-5.91868e-06
0.00103578
-2.45811e-06
-6.31444e-06
0.00104314
-2.54662e-06
-6.93069e-06
0.00105127
-2.62119e-06
-7.77042e-06
0.00106039
-2.69745e-06
-8.85428e-06
0.00107077
-2.78207e-06
-1.02245e-05
0.00108272
-2.88093e-06
-1.19444e-05
0.00109666
-3.00401e-06
-1.41034e-05
0.00111312
-3.16637e-06
-1.68316e-05
0.00113283
-3.38798e-06
-2.03294e-05
0.00115684
-3.69509e-06
-2.49273e-05
0.00118677
-4.12447e-06
-3.12139e-05
0.00122537
-4.73167e-06
-4.03321e-05
0.00127792
-5.61427e-06
-5.48316e-05
-6.79797e-06
-8.00697e-05
0.00135504
0.000996507
3.65783e-06
-1.08718e-05
0.00100211
-2.71499e-07
-5.8946e-06
0.00100627
-7.89593e-07
-4.93742e-06
0.0010103
-1.17382e-06
-4.76252e-06
0.00101451
-1.50386e-06
-4.84477e-06
0.00101906
-1.71317e-06
-5.16325e-06
0.00102412
-1.81493e-06
-5.71424e-06
0.00102991
-1.85281e-06
-6.48006e-06
0.0010366
-1.86004e-06
-7.45775e-06
0.00104442
-1.85167e-06
-8.66798e-06
0.00105363
-1.83288e-06
-1.01542e-05
0.00106453
-1.80789e-06
-1.19816e-05
0.00107756
-1.78335e-06
-1.42419e-05
0.00109323
-1.76807e-06
-1.70692e-05
0.00111228
-1.77249e-06
-2.06702e-05
0.00113578
-1.8102e-06
-2.53844e-05
0.00116537
-1.90202e-06
-3.18124e-05
0.00120383
-2.08393e-06
-4.11163e-05
0.00125652
-2.4469e-06
-5.58597e-05
-2.86284e-06
-8.1459e-05
0.00133405
0.00100236
-4.27646e-06
0.00100308
-9.90509e-07
0.0010034
-1.10146e-06
0.00100358
-1.36222e-06
0.00100379
-1.71213e-06
0.00100432
-2.24467e-06
0.00100548
-2.97178e-06
0.0010075
-3.87879e-06
0.00101061
-4.96849e-06
0.00101503
-6.27156e-06
0.00102104
-7.83997e-06
0.00102897
-9.7448e-06
0.00103927
-1.20839e-05
0.0010525
-1.49995e-05
0.00106944
-1.87106e-05
0.00109121
-2.35758e-05
0.00111953
-3.02281e-05
0.00115734
-3.98895e-05
0.00121008
-5.5194e-05
-8.18646e-05
0.00128908
0.000996581
-1.02557e-05
-3.29756e-06
0.00100202
-4.61828e-06
-1.81248e-06
0.00100596
-2.984e-06
-2.055e-06
0.00100973
-2.09793e-06
-3.03947e-06
0.00101364
-1.41677e-06
-4.20299e-06
0.00101784
-8.95281e-07
-5.55451e-06
0.00102252
-5.04567e-07
-7.1546e-06
0.00102788
-1.98603e-07
-9.03992e-06
0.0010341
6.03459e-08
-1.12541e-05
0.00104139
2.9672e-07
-1.3865e-05
0.00104999
5.26355e-07
-1.69725e-05
0.0010602
7.60684e-07
-2.07135e-05
0.00107237
1.01175e-06
-2.52691e-05
0.00108696
1.29395e-06
-3.08906e-05
0.00110457
1.62443e-06
-3.79435e-05
0.00112595
2.02479e-06
-4.69825e-05
0.00115208
2.52436e-06
-5.88846e-05
0.00118411
3.16687e-06
-7.50882e-05
0.00122295
3.99942e-06
-9.80404e-05
4.85488e-06
-0.000131425
0.00126765
0.00113206
-2.33538e-06
-3.41831e-06
0.00112543
-8.17972e-07
-3.06206e-06
0.00112092
1.84692e-08
-3.43217e-06
0.0011181
3.42139e-07
-4.39274e-06
0.00111688
5.44299e-07
-5.58329e-06
0.00111704
7.21728e-07
-6.94596e-06
0.00111845
8.8135e-07
-8.5189e-06
0.00112108
1.03393e-06
-1.03451e-05
0.00112495
1.19648e-06
-1.24731e-05
0.00113017
1.38131e-06
-1.49726e-05
0.00113688
1.59638e-06
-1.79402e-05
0.00114531
1.84974e-06
-2.15022e-05
0.00115575
2.15306e-06
-2.58291e-05
0.00116861
2.52353e-06
-3.11575e-05
0.00118441
2.98459e-06
-3.78313e-05
0.00120385
3.56723e-06
-4.63714e-05
0.00122785
4.31279e-06
-5.76025e-05
0.0012575
5.27953e-06
-7.28844e-05
0.00129368
6.53172e-06
-9.45757e-05
8.00763e-06
-0.000125976
0.00133504
0.00114338
1.63201e-07
-8.42552e-06
0.00114246
5.23078e-07
-7.45854e-06
0.00114249
1.0107e-06
-7.11235e-06
0.0011432
1.35392e-06
-7.51418e-06
0.00114465
1.5866e-06
-8.23454e-06
0.00114683
1.77934e-06
-9.16954e-06
0.00114979
1.9568e-06
-1.03485e-05
0.00115358
2.12926e-06
-1.18185e-05
0.00115832
2.30989e-06
-1.36281e-05
0.00116417
2.51349e-06
-1.58395e-05
0.00117132
2.75338e-06
-1.8539e-05
0.00118003
3.04245e-06
-2.18452e-05
0.0011906
3.39672e-06
-2.59204e-05
0.00120344
3.83791e-06
-3.09917e-05
0.00121909
4.39495e-06
-3.73889e-05
0.00123823
5.10537e-06
-4.5614e-05
0.00126178
6.01797e-06
-5.64669e-05
0.0012908
7.19767e-06
-7.12729e-05
0.00132612
8.72452e-06
-9.23504e-05
1.05956e-05
-0.000122836
0.00136629
0.00114553
3.64621e-07
-8.37824e-06
0.00114637
6.88234e-07
-8.40333e-06
0.00114797
1.04036e-06
-8.38465e-06
0.00115024
1.37503e-06
-8.944e-06
0.00115316
1.64536e-06
-9.79655e-06
0.00115672
1.86815e-06
-1.08311e-05
0.00116095
2.06893e-06
-1.20649e-05
0.00116591
2.26498e-06
-1.35461e-05
0.00117173
2.4709e-06
-1.53277e-05
0.00117856
2.7021e-06
-1.74756e-05
0.0011866
2.97434e-06
-2.00802e-05
0.0011961
3.30383e-06
-2.32632e-05
0.00120738
3.70932e-06
-2.71873e-05
0.00122085
4.2149e-06
-3.20766e-05
0.00123703
4.85213e-06
-3.82558e-05
0.00125663
5.66168e-06
-4.62194e-05
0.00128054
6.69528e-06
-5.67566e-05
0.00130983
8.01827e-06
-7.11759e-05
0.00134533
9.70845e-06
-9.17744e-05
1.1773e-05
-0.000121641
0.00138559
0.00114544
3.42897e-07
-8.0469e-06
0.00114658
6.65249e-07
-8.32747e-06
0.0011486
9.5753e-07
-8.50056e-06
0.00115143
1.24486e-06
-9.09892e-06
0.00115503
1.51205e-06
-9.93621e-06
0.00115935
1.75579e-06
-1.09366e-05
0.00116437
1.98667e-06
-1.21191e-05
0.00117015
2.21727e-06
-1.35331e-05
0.00117677
2.45945e-06
-1.52356e-05
0.00118438
2.72589e-06
-1.7296e-05
0.00119318
3.03082e-06
-1.98064e-05
0.00120341
3.39045e-06
-2.28883e-05
0.00121539
3.82405e-06
-2.6702e-05
0.00122954
4.35599e-06
-3.14679e-05
0.00124639
5.01767e-06
-3.75057e-05
0.00126665
5.84917e-06
-4.5304e-05
0.00129121
6.90068e-06
-5.56445e-05
0.00132115
8.23406e-06
-6.98251e-05
0.00135729
9.92184e-06
-9.01294e-05
1.19825e-05
-0.000119631
0.00139816
0.00114528
2.78513e-07
-7.883e-06
0.00114647
5.52067e-07
-8.19742e-06
0.0011486
7.87112e-07
-8.48735e-06
0.00115158
1.01009e-06
-9.15284e-06
0.00115539
1.22943e-06
-1.00269e-05
0.00115996
1.44352e-06
-1.10624e-05
0.00116527
1.65453e-06
-1.22818e-05
0.00117137
1.8696e-06
-1.37288e-05
0.00117834
2.09811e-06
-1.5456e-05
0.00118634
2.35067e-06
-1.75298e-05
0.00119555
2.63942e-06
-2.00397e-05
0.00120621
2.97868e-06
-2.31047e-05
0.00121865
3.38592e-06
-2.68827e-05
0.00123329
3.88316e-06
-3.15913e-05
0.00125065
4.49844e-06
-3.75473e-05
0.00127145
5.2671e-06
-4.52353e-05
0.0012966
6.23287e-06
-5.54325e-05
0.00132718
7.44851e-06
-6.94297e-05
0.00136402
8.97323e-06
-8.95027e-05
1.08257e-05
-0.000118726
0.00140568
0.00114514
2.0839e-07
-7.80048e-06
0.00114631
4.18965e-07
-8.09832e-06
0.00114844
6.00523e-07
-8.43285e-06
0.00115145
7.68039e-07
-9.12914e-06
0.0011553
9.34874e-07
-1.00052e-05
0.00115993
1.10448e-06
-1.10287e-05
0.00116534
1.27758e-06
-1.22305e-05
0.00117156
1.45778e-06
-1.36555e-05
0.00117869
1.65155e-06
-1.53552e-05
0.00118687
1.86693e-06
-1.73959e-05
0.00119629
2.11316e-06
-1.98672e-05
0.0012072
2.40134e-06
-2.2888e-05
0.00121992
2.74533e-06
-2.6616e-05
0.00123486
3.1627e-06
-3.12676e-05
0.00125257
3.67572e-06
-3.71578e-05
0.00127375
4.31225e-06
-4.47689e-05
0.00129934
5.10642e-06
-5.48744e-05
0.00133041
6.0991e-06
-6.87609e-05
0.00136781
7.33564e-06
-8.86984e-05
8.83757e-06
-0.000117763
0.00141009
0.00114504
1.38285e-07
-7.75661e-06
0.00114618
2.80387e-07
-8.03558e-06
0.00114831
4.04387e-07
-8.38737e-06
0.00115132
5.16963e-07
-9.10479e-06
0.00115518
6.2834e-07
-9.98831e-06
0.00115984
7.43566e-07
-1.10097e-05
0.00116528
8.63727e-07
-1.22069e-05
0.00117155
9.9054e-07
-1.36266e-05
0.00117874
1.1279e-06
-1.53201e-05
0.001187
1.28122e-06
-1.73528e-05
0.00119652
1.45692e-06
-1.98138e-05
0.00120754
1.66268e-06
-2.28216e-05
0.0012204
1.90813e-06
-2.6533e-05
0.0012355
2.20548e-06
-3.11633e-05
0.00125341
2.57007e-06
-3.70254e-05
0.00127483
3.02091e-06
-4.45998e-05
0.00130069
3.58112e-06
-5.46578e-05
0.00133208
4.27807e-06
-6.84833e-05
0.00136986
5.1413e-06
-8.83434e-05
6.18903e-06
-0.000117321
0.00141257
0.00114497
6.90338e-08
-7.73376e-06
0.0011461
1.40623e-07
-7.99967e-06
0.00114822
2.03707e-07
-8.35718e-06
0.00115123
2.60709e-07
-9.08626e-06
0.0011551
3.16778e-07
-9.97501e-06
0.00115976
3.7521e-07
-1.09941e-05
0.00116521
4.3688e-07
-1.2185e-05
0.0011715
5.02499e-07
-1.35964e-05
0.00117871
5.73876e-07
-1.52798e-05
0.001187
6.53758e-07
-1.73002e-05
0.00119657
7.45469e-07
-1.97467e-05
0.00120765
8.52955e-07
-2.27377e-05
0.00122057
9.81107e-07
-2.64298e-05
0.00123577
1.1361e-06
-3.10381e-05
0.00125379
1.32567e-06
-3.6875e-05
0.00127534
1.55939e-06
-4.44204e-05
0.00130136
1.84884e-06
-5.44449e-05
0.00133295
2.20776e-06
-6.82318e-05
0.00137095
2.65067e-06
-8.8047e-05
3.19072e-06
-0.000116978
0.00141392
0.00114494
3.71685e-10
-7.72392e-06
0.00114606
7.87804e-10
-7.98343e-06
0.00114818
1.23071e-09
-8.34244e-06
0.00115119
1.72369e-09
-9.07664e-06
0.00115505
2.24088e-09
-9.96836e-06
0.00115972
2.77472e-09
-1.0987e-05
0.00116517
3.30586e-09
-1.21752e-05
0.00117147
3.81287e-09
-1.35834e-05
0.00117869
4.28349e-09
-1.52629e-05
0.001187
4.72012e-09
-1.72788e-05
0.00119658
5.13556e-09
-1.97199e-05
0.00120768
5.53948e-09
-2.27046e-05
0.00122064
5.92984e-09
-2.63896e-05
0.00123587
6.29805e-09
-3.09895e-05
0.00125394
6.64463e-09
-3.6817e-05
0.00127555
6.9887e-09
-4.43516e-05
0.00130164
7.36298e-09
-5.43635e-05
0.00133332
7.80261e-09
-6.81356e-05
0.00137143
8.32955e-09
-8.79333e-05
8.97931e-09
-0.000116849
0.00141452
0.00114494
-6.83015e-08
-7.72392e-06
0.00114606
-1.39056e-07
-7.98343e-06
0.00114818
-2.0128e-07
-8.34244e-06
0.00115119
-2.573e-07
-9.07663e-06
0.00115505
-3.12324e-07
-9.96833e-06
0.00115972
-3.69675e-07
-1.09869e-05
0.00116517
-4.30275e-07
-1.21752e-05
0.00117147
-4.94882e-07
-1.35833e-05
0.00117869
-5.65328e-07
-1.52628e-05
0.001187
-6.44347e-07
-1.72787e-05
0.00119658
-7.35231e-07
-1.97198e-05
0.00120768
-8.41904e-07
-2.27045e-05
0.00122064
-9.69269e-07
-2.63895e-05
0.00123587
-1.12352e-06
-3.09894e-05
0.00125394
-1.3124e-06
-3.6817e-05
0.00127555
-1.54543e-06
-4.43516e-05
0.00130164
-1.83414e-06
-5.43635e-05
0.00133332
-2.19221e-06
-6.81356e-05
0.00137142
-2.63409e-06
-8.79333e-05
-3.17288e-06
-0.000116849
0.00141452
0.00114497
-1.37609e-07
-7.73376e-06
0.0011461
-2.78934e-07
-7.99967e-06
0.00114822
-4.02096e-07
-8.35718e-06
0.00115123
-5.13697e-07
-9.08621e-06
0.0011551
-6.24009e-07
-9.97492e-06
0.00115976
-7.38118e-07
-1.0994e-05
0.00116521
-8.57181e-07
-1.21848e-05
0.00117149
-9.82973e-07
-1.35961e-05
0.00117871
-1.11941e-06
-1.52795e-05
0.001187
-1.27189e-06
-1.72999e-05
0.00119657
-1.44678e-06
-1.97464e-05
0.00120765
-1.65175e-06
-2.27374e-05
0.00122057
-1.89644e-06
-2.64296e-05
0.00123577
-2.19308e-06
-3.10378e-05
0.00125378
-2.557e-06
-3.68748e-05
0.00127534
-3.00717e-06
-4.44202e-05
0.00130136
-3.56664e-06
-5.44448e-05
0.00133295
-4.26273e-06
-6.82317e-05
0.00137095
-5.12495e-06
-8.8047e-05
-6.17146e-06
-0.000116978
0.00141392
0.00114504
-2.07799e-07
-7.75663e-06
0.00114618
-4.17653e-07
-8.0356e-06
0.00114831
-5.98447e-07
-8.38737e-06
0.00115132
-7.64997e-07
-9.10471e-06
0.00115518
-9.30731e-07
-9.98813e-06
0.00115984
-1.09917e-06
-1.10095e-05
0.00116528
-1.27115e-06
-1.22065e-05
0.00117155
-1.45031e-06
-1.36261e-05
0.00117874
-1.64316e-06
-1.53196e-05
0.001187
-1.85769e-06
-1.73523e-05
0.00119652
-2.10312e-06
-1.98133e-05
0.00120754
-2.39055e-06
-2.28212e-05
0.0012204
-2.73386e-06
-2.65326e-05
0.0012355
-3.15062e-06
-3.11628e-05
0.00125341
-3.66305e-06
-3.7025e-05
0.00127483
-4.29892e-06
-4.45995e-05
0.00130069
-5.09233e-06
-5.46575e-05
0.00133208
-6.0841e-06
-6.84831e-05
0.00136986
-7.31961e-06
-8.83433e-05
-8.82038e-06
-0.000117321
0.00141257
0.00114514
-2.78074e-07
-7.80051e-06
0.00114631
-5.51037e-07
-8.09836e-06
0.00114844
-7.854e-07
-8.43286e-06
0.00115145
-1.00741e-06
-9.12904e-06
0.0011553
-1.22558e-06
-1.00049e-05
0.00115993
-1.43841e-06
-1.10282e-05
0.00116534
-1.64826e-06
-1.223e-05
0.00117156
-1.86233e-06
-1.36548e-05
0.00117869
-2.08995e-06
-1.53544e-05
0.00118687
-2.34169e-06
-1.73951e-05
0.00119629
-2.62964e-06
-1.98664e-05
0.0012072
-2.96819e-06
-2.28873e-05
0.00121992
-3.37486e-06
-2.66152e-05
0.00123486
-3.87162e-06
-3.12669e-05
0.00125256
-4.48641e-06
-3.71571e-05
0.00127375
-5.25445e-06
-4.47684e-05
0.00129934
-6.21944e-06
-5.4874e-05
0.00133041
-7.43414e-06
-6.87607e-05
0.00136781
-8.95783e-06
-8.86982e-05
-1.08093e-05
-0.000117763
0.00141009
0.00114528
-3.42663e-07
-7.88306e-06
0.00114647
-6.64586e-07
-8.19751e-06
0.0011486
-9.56351e-07
-8.48741e-06
0.00115158
-1.24272e-06
-9.15272e-06
0.00115539
-1.50859e-06
-1.00264e-05
0.00115996
-1.75092e-06
-1.10617e-05
0.00116527
-1.98059e-06
-1.22809e-05
0.00117137
-2.21023e-06
-1.37278e-05
0.00117834
-2.45161e-06
-1.54548e-05
0.00118634
-2.71726e-06
-1.75286e-05
0.00119555
-3.02144e-06
-2.00386e-05
0.00120621
-3.38045e-06
-2.31037e-05
0.00121865
-3.81361e-06
-2.68817e-05
0.00123329
-4.34521e-06
-3.15902e-05
0.00125065
-5.00653e-06
-3.75462e-05
0.00127146
-5.8375e-06
-4.52345e-05
0.0012966
-6.88825e-06
-5.54318e-05
0.00132718
-8.22072e-06
-6.94293e-05
0.00136402
-9.9075e-06
-8.95025e-05
-1.19672e-05
-0.000118726
0.00140568
0.00114544
-3.64706e-07
-8.04704e-06
0.00114658
-6.8817e-07
-8.32768e-06
0.0011486
-1.03998e-06
-8.50075e-06
0.00115143
-1.37366e-06
-9.09883e-06
0.00115503
-1.64246e-06
-9.93566e-06
0.00115935
-1.86367e-06
-1.09356e-05
0.00116438
-2.06321e-06
-1.21179e-05
0.00117015
-2.25837e-06
-1.35317e-05
0.00117677
-2.46358e-06
-1.5234e-05
0.00118438
-2.69409e-06
-1.72944e-05
0.00119318
-2.96567e-06
-1.98049e-05
0.00120341
-3.29464e-06
-2.28869e-05
0.00121539
-3.69981e-06
-2.67005e-05
0.00122954
-4.2052e-06
-3.14663e-05
0.00124639
-4.84221e-06
-3.75041e-05
0.00126665
-5.65134e-06
-4.53026e-05
0.00129121
-6.68428e-06
-5.56434e-05
0.00132115
-8.00642e-06
-6.98243e-05
0.00135729
-9.69566e-06
-9.01287e-05
-1.17593e-05
-0.00011963
0.00139817
0.00114553
-1.63723e-07
-8.37853e-06
0.00114637
-5.23951e-07
-8.40377e-06
0.00114797
-1.01166e-06
-8.38508e-06
0.00115024
-1.35376e-06
-8.944e-06
0.00115316
-1.5846e-06
-9.79579e-06
0.00115673
-1.77555e-06
-1.08297e-05
0.00116095
-1.95174e-06
-1.20631e-05
0.00116592
-2.12344e-06
-1.35441e-05
0.00117174
-2.3035e-06
-1.53255e-05
0.00117857
-2.50657e-06
-1.74735e-05
0.00118661
-2.74595e-06
-2.00782e-05
0.00119611
-3.03461e-06
-2.32613e-05
0.00120739
-3.38866e-06
-2.71854e-05
0.00122085
-3.82978e-06
-3.20747e-05
0.00123704
-4.38673e-06
-3.82539e-05
0.00125664
-5.09687e-06
-4.62176e-05
0.00128055
-6.00892e-06
-5.67551e-05
0.00130984
-7.18787e-06
-7.11746e-05
0.00134534
-8.71387e-06
-9.17732e-05
-1.05841e-05
-0.00012164
0.0013856
0.00114338
2.33439e-06
-8.42608e-06
0.00114246
8.15881e-07
-7.45948e-06
0.00114249
-2.14247e-08
-7.11334e-06
0.00114321
-3.43972e-07
-7.51455e-06
0.00114465
-5.44099e-07
-8.23372e-06
0.00114684
-7.19592e-07
-9.16771e-06
0.0011498
-8.77896e-07
-1.03461e-05
0.00115359
-1.0297e-06
-1.18157e-05
0.00115833
-1.19174e-06
-1.36251e-05
0.00116418
-1.37612e-06
-1.58365e-05
0.00117133
-1.59073e-06
-1.8536e-05
0.00118004
-1.84374e-06
-2.18421e-05
0.00119061
-2.14693e-06
-2.59175e-05
0.00120345
-2.51744e-06
-3.09889e-05
0.0012191
-2.97851e-06
-3.73863e-05
0.00123825
-3.56095e-06
-4.56115e-05
0.0012618
-4.30606e-06
-5.64645e-05
0.00129082
-5.27215e-06
-7.12706e-05
0.00132614
-6.52364e-06
-9.23481e-05
-7.99896e-06
-0.000122834
0.00136632
0.00113206
1.02549e-05
-3.41924e-06
0.00112543
4.61663e-06
-3.06372e-06
0.00112092
2.98098e-06
-3.43411e-06
0.0011181
2.0947e-06
-4.39375e-06
0.00111688
1.41442e-06
-5.58263e-06
0.00111704
8.94199e-07
-6.94381e-06
0.00111846
5.046e-07
-8.51583e-06
0.00112109
1.99409e-07
-1.03416e-05
0.00112497
-5.89575e-08
-1.24697e-05
0.00113018
-2.94743e-07
-1.49692e-05
0.0011369
-5.23789e-07
-1.79367e-05
0.00114533
-7.57663e-07
-2.14986e-05
0.00115577
-1.0085e-06
-2.58256e-05
0.00116863
-1.29063e-06
-3.11543e-05
0.00118443
-1.62103e-06
-3.78284e-05
0.00120387
-2.02115e-06
-4.63688e-05
0.00122787
-2.52028e-06
-5.76e-05
0.00125753
-3.1622e-06
-7.28819e-05
0.00129371
-3.99416e-06
-9.45732e-05
-4.84929e-06
-0.000125973
0.00133507
0.00099658
-3.29857e-06
0.00100202
-1.81432e-06
0.00100595
-2.0575e-06
0.00100972
-3.04104e-06
0.00101362
-4.20294e-06
0.00101782
-5.55294e-06
0.00102251
-7.15197e-06
0.00102786
-9.03691e-06
0.00103408
-1.12513e-05
0.00104138
-1.38623e-05
0.00104998
-1.69697e-05
0.00106019
-2.07107e-05
0.00107236
-2.52664e-05
0.00108696
-3.08883e-05
0.00110457
-3.79416e-05
0.00112595
-4.69808e-05
0.00115209
-5.88831e-05
0.00118412
-7.50868e-05
0.00122297
-9.80393e-05
-0.000131424
0.00126767
0.000997241
-1.04059e-05
-1.61011e-06
0.00100399
-5.84605e-06
-2.71526e-06
0.00101012
-4.23177e-06
-3.95003e-06
0.00101591
-3.22627e-06
-5.60017e-06
0.00102163
-2.42101e-06
-7.50516e-06
0.00102746
-1.74843e-06
-9.63275e-06
0.00103354
-1.1914e-06
-1.20474e-05
0.00104005
-7.21872e-07
-1.4828e-05
0.00104717
-3.08566e-07
-1.80617e-05
0.00105509
6.90882e-08
-2.18571e-05
0.00106404
4.26824e-07
-2.63514e-05
0.00107427
7.80242e-07
-3.17229e-05
0.00108607
1.1429e-06
-3.82087e-05
0.00109977
1.53054e-06
-4.61274e-05
0.00111579
1.96151e-06
-5.59171e-05
0.00113455
2.45928e-06
-6.82025e-05
0.00115649
3.0547e-06
-8.38875e-05
0.0011819
3.78975e-06
-0.000104289
0.00121048
4.71137e-06
-0.000131335
5.69236e-06
-0.000167436
0.0012408
0.0011437
-7.3701e-06
-1.31762e-06
0.00114262
-5.27961e-06
-2.55405e-06
0.00114244
-3.7637e-06
-3.72956e-06
0.0011429
-2.91834e-06
-5.16254e-06