/*--------------------------------*- C++ -*----------------------------------*\
  =========                 |
  \\      /  F ield         | OpenFOAM: The Open Source CFD Toolbox
   \\    /   O peration     | Website:  https://openfoam.org
    \\  /    A nd           | Version:  10
     \\/     M anipulation  |
\*---------------------------------------------------------------------------*/
FoamFile
{
    format      ascii;
    class       volScalarField;
    location    "100";
    object      rho;
}
// * * * * * * * * * * * * * * * * * * * * * * * * * * * * * * * * * * * * * //

dimensions      [1 -3 0 0 0 0 0];

internalField   nonuniform List<scalar> 
112000
(
0.579332
0.577515
0.576077
0.57523
0.574621
0.574018
0.573346
0.572592
0.571746
0.570777
0.569641
0.568294
0.566686
0.564756
0.562417
0.559539
0.555926
0.55127
0.544986
0.537206
0.575112
0.574838
0.57444
0.574146
0.573875
0.573531
0.573075
0.5725
0.571799
0.570952
0.569924
0.56867
0.567142
0.565277
0.562986
0.560142
0.556546
0.551885
0.545553
0.537744
0.575605
0.575516
0.575296
0.575035
0.574736
0.574365
0.573891
0.573301
0.572587
0.571731
0.570695
0.569435
0.567898
0.566018
0.563708
0.560838
0.557205
0.552492
0.546074
0.538189
0.575625
0.575374
0.575049
0.574764
0.574479
0.574139
0.573706
0.573161
0.572495
0.571683
0.570689
0.569464
0.567957
0.566102
0.563809
0.560947
0.557312
0.552578
0.546108
0.538175
0.575581
0.575318
0.575017
0.574784
0.574551
0.574251
0.573848
0.573329
0.572683
0.571888
0.570905
0.56969
0.568188
0.566336
0.564042
0.56117
0.557513
0.552742
0.546207
0.538206
0.575529
0.575264
0.57496
0.574724
0.574486
0.57418
0.573773
0.573251
0.572604
0.571809
0.570828
0.569615
0.568116
0.566266
0.563969
0.561089
0.557415
0.552613
0.546027
0.537972
0.575483
0.575218
0.574915
0.574682
0.574449
0.574149
0.573748
0.573232
0.57259
0.571799
0.570822
0.56961
0.568111
0.566256
0.563951
0.561056
0.557359
0.552524
0.545889
0.537779
0.575446
0.575182
0.57488
0.574649
0.574416
0.574116
0.573714
0.573196
0.572551
0.571757
0.570776
0.569559
0.568053
0.566188
0.563871
0.560961
0.557243
0.552381
0.545706
0.53755
0.575421
0.575157
0.574857
0.574626
0.574395
0.574095
0.573692
0.573174
0.572529
0.571734
0.57075
0.56953
0.56802
0.56615
0.563826
0.560905
0.557174
0.552291
0.545589
0.537398
0.575409
0.575145
0.574845
0.574615
0.574384
0.574084
0.573681
0.573162
0.572516
0.571719
0.570734
0.569513
0.568
0.566127
0.563797
0.56087
0.55713
0.552236
0.545519
0.537308
0.575408
0.575145
0.574845
0.574615
0.574384
0.574084
0.573681
0.573162
0.572516
0.571719
0.570734
0.569513
0.568
0.566126
0.563797
0.56087
0.55713
0.552236
0.545519
0.537308
0.575421
0.575157
0.574857
0.574626
0.574395
0.574095
0.573692
0.573174
0.572529
0.571734
0.57075
0.56953
0.56802
0.56615
0.563826
0.560905
0.557173
0.552291
0.545589
0.537397
0.575446
0.575182
0.57488
0.574648
0.574416
0.574116
0.573713
0.573195
0.572551
0.571757
0.570775
0.569559
0.568052
0.566188
0.563871
0.56096
0.557243
0.55238
0.545705
0.537549
0.575482
0.575217
0.574914
0.574681
0.574448
0.574149
0.573747
0.573231
0.572589
0.571798
0.570821
0.56961
0.568111
0.566256
0.563951
0.561056
0.557359
0.552524
0.545888
0.537778
0.575529
0.575264
0.574959
0.574723
0.574485
0.574179
0.573772
0.57325
0.572604
0.571808
0.570827
0.569614
0.568116
0.566265
0.563969
0.561089
0.557414
0.552613
0.546026
0.537972
0.575581
0.575317
0.575016
0.574783
0.57455
0.57425
0.573847
0.573328
0.572683
0.571887
0.570905
0.569689
0.568188
0.566335
0.564041
0.561169
0.557512
0.552741
0.546206
0.538206
0.575624
0.575373
0.575048
0.574763
0.574478
0.574138
0.573705
0.573161
0.572494
0.571682
0.570688
0.569464
0.567957
0.566102
0.563809
0.560947
0.557311
0.552577
0.546107
0.538174
0.575605
0.575516
0.575296
0.575034
0.574734
0.574363
0.57389
0.5733
0.572586
0.57173
0.570695
0.569435
0.567898
0.566018
0.563708
0.560837
0.557204
0.552491
0.546073
0.538188
0.575111
0.574838
0.57444
0.574144
0.573873
0.57353
0.573074
0.572499
0.571798
0.570951
0.569923
0.56867
0.567142
0.565276
0.562986
0.560142
0.556546
0.551885
0.545552
0.537743
0.579331
0.577515
0.576076
0.575229
0.57462
0.574016
0.573344
0.572591
0.571745
0.570775
0.56964
0.568293
0.566685
0.564756
0.562416
0.559538
0.555924
0.551268
0.544985
0.537205
0.57522
0.574948
0.574554
0.574266
0.574006
0.573677
0.573241
0.572692
0.572023
0.571216
0.570236
0.569041
0.567586
0.565813
0.563642
0.560958
0.557592
0.553293
0.547645
0.540558
0.570861
0.571093
0.571348
0.571455
0.571424
0.571264
0.570975
0.570556
0.570001
0.569297
0.568412
0.567307
0.565933
0.564232
0.562126
0.559498
0.556179
0.551915
0.546287
0.539244
0.571573
0.572081
0.572486
0.572595
0.57248
0.572212
0.571816
0.571293
0.570638
0.569839
0.568867
0.567679
0.566227
0.564449
0.562264
0.559554
0.556147
0.551785
0.546036
0.538886
0.571548
0.572033
0.5724
0.57253
0.572468
0.572256
0.57191
0.571428
0.570807
0.570031
0.569071
0.567887
0.566428
0.564635
0.562425
0.559679
0.556222
0.551789
0.54594
0.538687
0.571478
0.572002
0.572423
0.572625
0.572638
0.572492
0.5722
0.571761
0.571173
0.570421
0.569475
0.568297
0.566838
0.565036
0.562808
0.560033
0.556532
0.552038
0.5461
0.538752
0.571414
0.571947
0.572376
0.572583
0.572604
0.57247
0.572193
0.571772
0.571201
0.570467
0.569539
0.568377
0.566931
0.565138
0.562912
0.560131
0.556612
0.552083
0.546088
0.538679
0.571361
0.571898
0.572332
0.572544
0.572572
0.572448
0.572183
0.571774
0.571217
0.570495
0.56958
0.568429
0.566991
0.565203
0.562978
0.560189
0.556655
0.5521
0.546062
0.538606
0.571321
0.57186
0.572297
0.572511
0.57254
0.572417
0.572152
0.571745
0.571189
0.570469
0.569555
0.568404
0.566966
0.565175
0.562945
0.560148
0.5566
0.552024
0.545955
0.538461
0.571295
0.571834
0.572274
0.572489
0.572518
0.572395
0.57213
0.571723
0.571168
0.570448
0.569533
0.568382
0.566942
0.565149
0.562915
0.560112
0.556553
0.551962
0.54587
0.538349
0.571282
0.571821
0.572262
0.572478
0.572507
0.572383
0.572118
0.571711
0.571155
0.570434
0.569519
0.568366
0.566925
0.56513
0.562892
0.560084
0.556519
0.551918
0.545814
0.538278
0.571282
0.571821
0.572262
0.572478
0.572507
0.572383
0.572118
0.571711
0.571155
0.570434
0.569519
0.568366
0.566925
0.56513
0.562892
0.560084
0.556519
0.551918
0.545814
0.538278
0.571295
0.571834
0.572273
0.572489
0.572518
0.572395
0.57213
0.571723
0.571168
0.570448
0.569533
0.568382
0.566942
0.565149
0.562915
0.560111
0.556553
0.551961
0.545869
0.538349
0.571321
0.571859
0.572297
0.572511
0.572539
0.572416
0.572152
0.571744
0.571188
0.570469
0.569554
0.568404
0.566966
0.565175
0.562945
0.560148
0.5566
0.552024
0.545954
0.538461
0.571361
0.571897
0.572332
0.572544
0.572571
0.572448
0.572182
0.571773
0.571216
0.570495
0.569579
0.568428
0.566991
0.565203
0.562977
0.560189
0.556654
0.552099
0.546061
0.538605
0.571413
0.571947
0.572376
0.572582
0.572603
0.57247
0.572192
0.571771
0.571201
0.570466
0.569538
0.568376
0.56693
0.565137
0.562912
0.56013
0.556611
0.552082
0.546087
0.538678
0.571478
0.572002
0.572423
0.572624
0.572637
0.572492
0.572199
0.571761
0.571172
0.57042
0.569474
0.568296
0.566837
0.565036
0.562808
0.560033
0.556532
0.552037
0.546099
0.538751
0.571548
0.572032
0.572399
0.572529
0.572467
0.572255
0.571909
0.571427
0.570806
0.57003
0.56907
0.567886
0.566428
0.564635
0.562425
0.559679
0.556221
0.551788
0.545939
0.538686
0.571573
0.572081
0.572485
0.572593
0.572478
0.572211
0.571815
0.571292
0.570638
0.569839
0.568866
0.567679
0.566227
0.564449
0.562264
0.559554
0.556147
0.551784
0.546035
0.538885
0.570861
0.571092
0.571348
0.571454
0.571422
0.571262
0.570974
0.570555
0.570001
0.569297
0.568412
0.567306
0.565933
0.564233
0.562126
0.559498
0.556178
0.551914
0.546287
0.539243
0.57522
0.574948
0.574554
0.574265
0.574004
0.573675
0.573239
0.57269
0.572022
0.571214
0.570234
0.56904
0.567586
0.565813
0.563642
0.560958
0.557592
0.553292
0.547644
0.540557
0.575908
0.575821
0.575607
0.575359
0.575082
0.574742
0.574311
0.573776
0.573132
0.572363
0.571435
0.57031
0.568944
0.567288
0.565274
0.562811
0.559769
0.555974
0.551171
0.545322
0.571781
0.57229
0.572699
0.572819
0.572721
0.572477
0.572112
0.571628
0.571024
0.570288
0.569393
0.568303
0.566974
0.565355
0.563379
0.560953
0.557949
0.55419
0.549419
0.543632
0.573523
0.573173
0.57316
0.57304
0.572748
0.572347
0.571861
0.571286
0.570609
0.569812
0.568866
0.567733
0.566363
0.564704
0.562686
0.560214
0.557157
0.553334
0.548481
0.542624
0.573587
0.573348
0.57326
0.5731
0.572795
0.572377
0.57187
0.571271
0.57057
0.569749
0.568779
0.567618
0.566218
0.564523
0.562463
0.559941
0.556823
0.552924
0.54797
0.542013
0.573434
0.573414
0.573461
0.573395
0.57317
0.57281
0.572335
0.571749
0.571047
0.570213
0.56922
0.568029
0.566593
0.564857
0.562747
0.560166
0.556977
0.552991
0.547928
0.54186
0.573336
0.573378
0.573467
0.573422
0.573222
0.572892
0.572449
0.571893
0.571216
0.570402
0.569425
0.568244
0.566812
0.565072
0.56295
0.560346
0.557121
0.553084
0.547947
0.541802
0.573267
0.573324
0.573432
0.5734
0.573213
0.572903
0.572483
0.571951
0.571296
0.570505
0.569546
0.568382
0.566962
0.565228
0.563106
0.560494
0.55725
0.553181
0.547996
0.5418
0.573219
0.57328
0.573398
0.573371
0.573186
0.57288
0.572465
0.57194
0.571294
0.570511
0.569561
0.568404
0.56699
0.565261
0.563139
0.560523
0.557269
0.553183
0.547967
0.541739
0.573188
0.573251
0.573373
0.57335
0.573166
0.572859
0.572446
0.571923
0.57128
0.570499
0.569553
0.568398
0.566987
0.565259
0.563137
0.560519
0.557259
0.553161
0.547927
0.541679
0.573173
0.573236
0.57336
0.573339
0.573154
0.572847
0.572434
0.571911
0.571268
0.570488
0.569542
0.568388
0.566977
0.565248
0.563126
0.560505
0.557241
0.553136
0.547893
0.541634
0.573173
0.573236
0.57336
0.573339
0.573154
0.572847
0.572434
0.571911
0.571268
0.570488
0.569542
0.568388
0.566977
0.565248
0.563126
0.560504
0.557241
0.553136
0.547893
0.541634
0.573188
0.57325
0.573373
0.57335
0.573165
0.572858
0.572446
0.571923
0.571279
0.570499
0.569552
0.568398
0.566987
0.565259
0.563137
0.560518
0.557259
0.553161
0.547927
0.541678
0.573219
0.57328
0.573397
0.573371
0.573186
0.572879
0.572465
0.57194
0.571294
0.57051
0.569561
0.568404
0.56699
0.56526
0.563139
0.560523
0.557269
0.553182
0.547967
0.541739
0.573267
0.573323
0.573432
0.5734
0.573212
0.572902
0.572482
0.57195
0.571296
0.570504
0.569546
0.568381
0.566961
0.565228
0.563106
0.560494
0.55725
0.553181
0.547995
0.541799
0.573335
0.573377
0.573466
0.573422
0.573221
0.572891
0.572448
0.571892
0.571215
0.570402
0.569424
0.568244
0.566812
0.565072
0.56295
0.560346
0.557121
0.553083
0.547946
0.541801
0.573434
0.573414
0.57346
0.573394
0.573169
0.572809
0.572334
0.571748
0.571046
0.570212
0.56922
0.568029
0.566593
0.564856
0.562747
0.560166
0.556977
0.552991
0.547928
0.54186
0.573586
0.573348
0.573259
0.573099
0.572794
0.572376
0.571869
0.57127
0.570569
0.569749
0.568778
0.567617
0.566217
0.564523
0.562463
0.559941
0.556823
0.552924
0.547969
0.542012
0.573522
0.573172
0.573159
0.573038
0.572747
0.572345
0.57186
0.571285
0.570608
0.569811
0.568866
0.567732
0.566363
0.564704
0.562686
0.560214
0.557156
0.553333
0.54848
0.542623
0.571781
0.57229
0.572699
0.572817
0.572719
0.572475
0.572111
0.571628
0.571024
0.570288
0.569393
0.568304
0.566975
0.565356
0.563379
0.560954
0.557949
0.55419
0.549419
0.543631
0.575908
0.575821
0.575607
0.575357
0.575079
0.574739
0.574308
0.573774
0.573131
0.572361
0.571434
0.570309
0.568944
0.567288
0.565274
0.562811
0.559769
0.555973
0.55117
0.545322
0.576203
0.575954
0.575641
0.575378
0.575131
0.574844
0.574481
0.574029
0.573481
0.572819
0.572013
0.571027
0.569825
0.568368
0.566604
0.564464
0.56186
0.558678
0.554783
0.550171
0.572039
0.572526
0.572904
0.573058
0.573032
0.572872
0.572593
0.572199
0.571688
0.57105
0.570263
0.569295
0.568112
0.566672
0.564927
0.562809
0.560229
0.557075
0.55321
0.54865
0.573889
0.573651
0.573572
0.573429
0.57315
0.572767
0.572303
0.57176
0.571128
0.570393
0.569527
0.568496
0.56726
0.565775
0.563987
0.561828
0.559205
0.556004
0.552082
0.547479
0.574666
0.573728
0.573207
0.572905
0.572589
0.572202
0.571744
0.571208
0.570585
0.569855
0.568991
0.567957
0.566712
0.565211
0.5634
0.561207
0.558541
0.555284
0.551286
0.546607
0.574551
0.573956
0.573557
0.573309
0.573026
0.572647
0.572171
0.571604
0.57094
0.570164
0.569251
0.568165
0.566867
0.565309
0.563437
0.561177
0.558435
0.555091
0.550989
0.546205
0.574375
0.573988
0.573703
0.573498
0.573246
0.572898
0.572446
0.571894
0.571236
0.57046
0.56954
0.568441
0.567124
0.56554
0.563633
0.56133
0.558533
0.55512
0.550932
0.54606
0.574273
0.573944
0.573708
0.573528
0.573302
0.572985
0.57257
0.57205
0.571421
0.570667
0.569765
0.568679
0.567366
0.56578
0.563863
0.561539
0.558711
0.555255
0.551008
0.546074
0.574209
0.573894
0.57368
0.573513
0.573293
0.572988
0.572586
0.572084
0.571471
0.570734
0.569847
0.568774
0.567472
0.565892
0.563976
0.561648
0.558809
0.555332
0.551052
0.546084
0.57417
0.57386
0.573656
0.573495
0.573277
0.572973
0.572576
0.57208
0.571475
0.570746
0.569867
0.568802
0.567507
0.565934
0.564021
0.561694
0.558851
0.555364
0.551068
0.546082
0.574151
0.573843
0.573643
0.573484
0.573267
0.572962
0.572566
0.572071
0.571468
0.570742
0.569866
0.568803
0.567512
0.565941
0.56403
0.561703
0.558858
0.555368
0.551064
0.546071
0.574151
0.573842
0.573642
0.573484
0.573266
0.572962
0.572566
0.572071
0.571468
0.570742
0.569866
0.568803
0.567512
0.56594
0.56403
0.561703
0.558858
0.555368
0.551064
0.546071
0.574169
0.57386
0.573655
0.573494
0.573277
0.572972
0.572576
0.572079
0.571475
0.570746
0.569867
0.568802
0.567507
0.565933
0.564021
0.561694
0.55885
0.555364
0.551067
0.546082
0.574208
0.573894
0.57368
0.573512
0.573293
0.572987
0.572586
0.572083
0.571471
0.570734
0.569847
0.568773
0.567471
0.565892
0.563976
0.561648
0.558808
0.555331
0.551051
0.546084
0.574273
0.573944
0.573708
0.573528
0.573301
0.572985
0.572569
0.572049
0.57142
0.570667
0.569765
0.568678
0.567366
0.56578
0.563863
0.561539
0.558711
0.555255
0.551007
0.546073
0.574374
0.573987
0.573702
0.573497
0.573246
0.572897
0.572445
0.571893
0.571235
0.570459
0.569539
0.568441
0.567123
0.56554
0.563633
0.56133
0.558533
0.55512
0.550931
0.546059
0.57455
0.573955
0.573556
0.573308
0.573025
0.572646
0.57217
0.571603
0.570939
0.570163
0.56925
0.568165
0.566866
0.565309
0.563436
0.561177
0.558435
0.55509
0.550988
0.546205
0.574666
0.573727
0.573206
0.572904
0.572588
0.572201
0.571743
0.571208
0.570584
0.569854
0.56899
0.567957
0.566712
0.565211
0.5634
0.561207
0.558541
0.555283
0.551286
0.546607
0.573889
0.573651
0.573571
0.573428
0.573148
0.572765
0.572302
0.571759
0.571128
0.570392
0.569527
0.568496
0.56726
0.565775
0.563988
0.561828
0.559205
0.556004
0.552081
0.547478
0.572039
0.572526
0.572904
0.573056
0.57303
0.57287
0.572592
0.572198
0.571688
0.57105
0.570263
0.569296
0.568113
0.566673
0.564928
0.562809
0.560229
0.557075
0.553209
0.54865
0.576203
0.575954
0.57564
0.575376
0.575128
0.574841
0.574479
0.574028
0.57348
0.572818
0.572012
0.571026
0.569825
0.568369
0.566604
0.564464
0.561859
0.558678
0.554783
0.550171
0.576503
0.576246
0.575963
0.575769
0.575596
0.575379
0.575087
0.574711
0.574248
0.573682
0.572987
0.572134
0.571097
0.569846
0.568344
0.566544
0.564389
0.561814
0.558757
0.55523
0.572316
0.572844
0.573284
0.573524
0.573596
0.573532
0.573346
0.573046
0.572632
0.5721
0.57143
0.570599
0.569581
0.568346
0.56686
0.565078
0.562943
0.56039
0.557356
0.553864
0.574098
0.574078
0.57414
0.574106
0.57393
0.573637
0.57325
0.572777
0.572216
0.571559
0.570786
0.569871
0.568781
0.567485
0.565945
0.564114
0.561933
0.559337
0.556256
0.552722
0.574929
0.574333
0.573942
0.573712
0.573457
0.573116
0.57269
0.572185
0.5716
0.570924
0.570133
0.5692
0.568093
0.566776
0.565213
0.563353
0.561139
0.558499
0.555362
0.55177
0.575367
0.574463
0.573905
0.573634
0.573394
0.573072
0.572654
0.572147
0.571551
0.570855
0.570041
0.569078
0.567937
0.566582
0.564974
0.563064
0.560791
0.558084
0.554866
0.55119
0.575212
0.574622
0.574174
0.573917
0.573672
0.573342
0.572912
0.572387
0.57177
0.571052
0.570213
0.569224
0.568053
0.566664
0.565016
0.563059
0.56073
0.557957
0.554659
0.550901
0.57504
0.574631
0.574294
0.574083
0.573868
0.573569
0.573167
0.572663
0.572058
0.571345
0.570505
0.56951
0.568326
0.566918
0.565243
0.56325
0.560876
0.558049
0.554684
0.550857
0.574945
0.574589
0.5743
0.574112
0.573914
0.573637
0.57326
0.572781
0.572198
0.571504
0.570679
0.569694
0.568516
0.567107
0.565426
0.56342
0.561025
0.558168
0.554762
0.550891
0.574892
0.574549
0.57428
0.574104
0.573912
0.573643
0.573278
0.572814
0.572246
0.571566
0.570754
0.569781
0.568613
0.567212
0.565535
0.563528
0.561127
0.558257
0.554831
0.550938
0.574867
0.574528
0.574268
0.574096
0.573906
0.573638
0.573276
0.572816
0.572254
0.57158
0.570775
0.569809
0.568647
0.567251
0.565577
0.563572
0.56117
0.558296
0.554862
0.550961
0.574867
0.574528
0.574267
0.574096
0.573905
0.573637
0.573276
0.572816
0.572254
0.57158
0.570775
0.569808
0.568647
0.567251
0.565577
0.563572
0.56117
0.558296
0.554862
0.550961
0.574892
0.574548
0.57428
0.574104
0.573912
0.573643
0.573278
0.572813
0.572245
0.571566
0.570754
0.569781
0.568613
0.567212
0.565535
0.563528
0.561127
0.558257
0.55483
0.550938
0.574945
0.574588
0.574299
0.574111
0.573913
0.573637
0.57326
0.57278
0.572198
0.571503
0.570678
0.569693
0.568515
0.567107
0.565426
0.56342
0.561025
0.558167
0.554761
0.550891
0.575039
0.574631
0.574294
0.574082
0.573867
0.573569
0.573166
0.572662
0.572057
0.571344
0.570505
0.569509
0.568326
0.566917
0.565243
0.56325
0.560876
0.558049
0.554684
0.550856
0.575211
0.574621
0.574173
0.573916
0.573671
0.573341
0.572911
0.572386
0.571769
0.571051
0.570212
0.569224
0.568053
0.566664
0.565016
0.563059
0.56073
0.557956
0.554659
0.5509
0.575367
0.574463
0.573905
0.573633
0.573393
0.573071
0.572653
0.572146
0.57155
0.570855
0.57004
0.569078
0.567937
0.566582
0.564974
0.563064
0.560791
0.558084
0.554866
0.551189
0.574929
0.574333
0.573941
0.573711
0.573456
0.573114
0.572689
0.572184
0.5716
0.570923
0.570133
0.5692
0.568092
0.566777
0.565213
0.563354
0.561138
0.558499
0.555362
0.55177
0.574098
0.574078
0.574139
0.574105
0.573928
0.573636
0.573249
0.572776
0.572215
0.571559
0.570786
0.569871
0.568781
0.567485
0.565945
0.564114
0.561934
0.559337
0.556256
0.552722
0.572316
0.572844
0.573284
0.573522
0.573593
0.57353
0.573345
0.573045
0.572632
0.5721
0.57143
0.5706
0.569581
0.568347
0.566861
0.565079
0.562943
0.56039
0.557356
0.553864
0.576504
0.576246
0.575963
0.575767
0.575593
0.575376
0.575084
0.57471
0.574247
0.573681
0.572986
0.572134
0.571098
0.569847
0.568345
0.566545
0.564389
0.561814
0.558757
0.55523
0.576853
0.576596
0.576321
0.576142
0.575992
0.575807
0.575559
0.575243
0.574856
0.574387
0.573814
0.573112
0.572263
0.571245
0.570035
0.568603
0.566913
0.564935
0.562648
0.560075
0.572654
0.573194
0.573653
0.573916
0.574023
0.574008
0.573886
0.573664
0.573345
0.572926
0.572392
0.571724
0.570902
0.569907
0.568716
0.567301
0.565628
0.563668
0.561398
0.558843
0.574412
0.574455
0.574568
0.574574
0.574449
0.574223
0.573917
0.573535
0.573078
0.572539
0.571904
0.57115
0.570255
0.569195
0.567945
0.566477
0.564757
0.562751
0.560432
0.557829
0.575179
0.57479
0.57452
0.574351
0.574156
0.573884
0.573534
0.573111
0.572617
0.572044
0.571377
0.570593
0.569667
0.568575
0.567292
0.56579
0.564032
0.561982
0.559613
0.556952
0.575654
0.575063
0.574624
0.574388
0.574175
0.573889
0.573515
0.573062
0.572533
0.571925
0.571221
0.570399
0.569435
0.568303
0.566978
0.565428
0.563619
0.561512
0.559075
0.556342
0.575966
0.575135
0.574558
0.574255
0.574021
0.573739
0.573377
0.572936
0.572417
0.571815
0.571114
0.57029
0.569318
0.568173
0.566826
0.565246
0.563398
0.561243
0.558747
0.555949
0.57581
0.575252
0.574783
0.574501
0.574266
0.573982
0.573616
0.573168
0.572638
0.572022
0.571306
0.570466
0.569474
0.568304
0.566926
0.565311
0.563419
0.561214
0.558658
0.555798
0.575652
0.575254
0.574888
0.574648
0.574436
0.574173
0.573827
0.573393
0.572871
0.572259
0.571542
0.570697
0.569695
0.56851
0.567113
0.565471
0.563547
0.561302
0.558698
0.555787
0.575573
0.575221
0.574899
0.57468
0.574483
0.574237
0.573913
0.5735
0.572999
0.572403
0.571698
0.570861
0.569865
0.56868
0.567278
0.565626
0.563687
0.561419
0.558784
0.555842
0.575538
0.575197
0.574891
0.574681
0.574489
0.574249
0.573935
0.573533
0.573043
0.572457
0.571762
0.570933
0.569943
0.568763
0.567363
0.56571
0.563765
0.561488
0.558841
0.555884
0.575538
0.575197
0.574891
0.574681
0.574488
0.574249
0.573935
0.573533
0.573043
0.572457
0.571762
0.570933
0.569943
0.568763
0.567363
0.56571
0.563765
0.561488
0.558841
0.555884
0.575573
0.575221
0.574899
0.57468
0.574482
0.574237
0.573912
0.5735
0.572998
0.572402
0.571698
0.570861
0.569864
0.56868
0.567278
0.565626
0.563686
0.561418
0.558784
0.555841
0.575652
0.575254
0.574888
0.574648
0.574436
0.574172
0.573826
0.573392
0.572871
0.572259
0.571542
0.570696
0.569695
0.56851
0.567113
0.565471
0.563547
0.561302
0.558697
0.555787
0.575809
0.575251
0.574782
0.5745
0.574266
0.573981
0.573616
0.573167
0.572637
0.572022
0.571306
0.570465
0.569473
0.568303
0.566926
0.565311
0.563419
0.561213
0.558657
0.555797
0.575966
0.575134
0.574557
0.574254
0.57402
0.573738
0.573376
0.572935
0.572417
0.571815
0.571113
0.57029
0.569318
0.568173
0.566826
0.565246
0.563398
0.561243
0.558746
0.555948
0.575653
0.575063
0.574623
0.574387
0.574174
0.573887
0.573514
0.573061
0.572533
0.571925
0.571221
0.570399
0.569434
0.568303
0.566978
0.565429
0.563619
0.561511
0.559075
0.556342
0.575179
0.57479
0.57452
0.57435
0.574154
0.573882
0.573533
0.57311
0.572616
0.572044
0.571377
0.570592
0.569667
0.568575
0.567293
0.56579
0.564032
0.561982
0.559612
0.556951
0.574411
0.574455
0.574568
0.574572
0.574447
0.574222
0.573916
0.573534
0.573077
0.572539
0.571904
0.57115
0.570255
0.569195
0.567946
0.566478
0.564757
0.56275
0.560432
0.557829
0.572654
0.573194
0.573652
0.573914
0.574021
0.574006
0.573885
0.573663
0.573345
0.572926
0.572392
0.571724
0.570903
0.569908
0.568717
0.567301
0.565629
0.563668
0.561399
0.558843
0.576853
0.576597
0.576321
0.57614
0.575989
0.575804
0.575557
0.575241
0.574855
0.574386
0.573813
0.573112
0.572263
0.571246
0.570036
0.568603
0.566913
0.564935
0.562649
0.560075
0.577254
0.577001
0.576739
0.576583
0.57647
0.576335
0.576148
0.575907
0.575612
0.575254
0.574815
0.574276
0.573622
0.572843
0.571925
0.570851
0.569605
0.568175
0.566563
0.564796
0.573048
0.573595
0.57407
0.57436
0.574505
0.574542
0.574487
0.574345
0.574124
0.573822
0.573429
0.572928
0.572308
0.571556
0.57066
0.569606
0.568378
0.566965
0.565368
0.563611
0.574798
0.574858
0.575001
0.575039
0.574958
0.574794
0.574564
0.574273
0.573923
0.573509
0.573021
0.572441
0.571752
0.570939
0.569987
0.568882
0.567607
0.566149
0.564506
0.5627
0.575542
0.575212
0.575001
0.574877
0.574736
0.574538
0.574277
0.573956
0.573575
0.573132
0.572613
0.572003
0.571282
0.570435
0.569449
0.568307
0.566993
0.565492
0.563799
0.561936
0.575959
0.575549
0.57523
0.575058
0.574907
0.574695
0.574406
0.574045
0.57362
0.573129
0.572562
0.571903
0.571134
0.570239
0.569203
0.56801
0.566643
0.565085
0.563329
0.561398
0.576302
0.575744
0.575285
0.575025
0.574825
0.574588
0.574284
0.573912
0.573478
0.572979
0.572406
0.57174
0.570962
0.570053
0.568999
0.567782
0.566383
0.564787
0.562985
0.560999
0.576559
0.575785
0.575214
0.574902
0.574686
0.574456
0.574168
0.573814
0.573394
0.572908
0.572344
0.571683
0.570906
0.569992
0.568925
0.567688
0.566263
0.564633
0.56279
0.560757
0.576416
0.575883
0.575412
0.57512
0.574899
0.57466
0.574363
0.573998
0.573566
0.573066
0.572487
0.571811
0.571017
0.570083
0.568993
0.567729
0.566272
0.564606
0.56272
0.560642
0.576283
0.575892
0.575512
0.575257
0.575056
0.574834
0.574553
0.5742
0.573774
0.573274
0.572692
0.572009
0.571204
0.570255
0.569146
0.567858
0.566373
0.564674
0.562749
0.560632
0.57623
0.575877
0.575531
0.575292
0.575102
0.574895
0.574631
0.574292
0.573878
0.573387
0.572811
0.57213
0.571324
0.570372
0.569255
0.567956
0.566456
0.564739
0.562793
0.560653
0.57623
0.575877
0.575531
0.575291
0.575102
0.574895
0.57463
0.574292
0.573878
0.573387
0.572811
0.57213
0.571324
0.570372
0.569255
0.567956
0.566456
0.564739
0.562793
0.560653
0.576283
0.575892
0.575512
0.575257
0.575056
0.574834
0.574553
0.5742
0.573774
0.573274
0.572692
0.572009
0.571203
0.570255
0.569146
0.567858
0.566373
0.564674
0.562749
0.560632
0.576416
0.575883
0.575412
0.575119
0.574898
0.574659
0.574363
0.573998
0.573566
0.573065
0.572487
0.571811
0.571016
0.570083
0.568993
0.567729
0.566272
0.564606
0.562719
0.560642
0.576558
0.575784
0.575214
0.574901
0.574685
0.574455
0.574167
0.573813
0.573394
0.572908
0.572343
0.571683
0.570905
0.569991
0.568925
0.567688
0.566263
0.564633
0.562789
0.560757
0.576302
0.575743
0.575284
0.575024
0.574824
0.574587
0.574283
0.573912
0.573477
0.572979
0.572406
0.57174
0.570961
0.570053
0.568999
0.567782
0.566383
0.564787
0.562984
0.560999
0.575959
0.575549
0.575229
0.575057
0.574906
0.574694
0.574405
0.574045
0.573619
0.573128
0.572561
0.571902
0.571133
0.570239
0.569203
0.568011
0.566643
0.565085
0.563329
0.561397
0.575542
0.575212
0.575
0.574875
0.574734
0.574536
0.574276
0.573955
0.573574
0.573131
0.572613
0.572002
0.571282
0.570436
0.56945
0.568307
0.566993
0.565491
0.563799
0.561936
0.574798
0.574858
0.575
0.575038
0.574956
0.574792
0.574563
0.574272
0.573922
0.573509
0.573021
0.572441
0.571752
0.570939
0.569988
0.568883
0.567607
0.566149
0.564506
0.5627
0.573049
0.573595
0.57407
0.574358
0.574503
0.57454
0.574485
0.574345
0.574124
0.573822
0.573429
0.572929
0.572309
0.571558
0.570662
0.569607
0.568378
0.566965
0.565368
0.563612
0.577254
0.577001
0.576738
0.576581
0.576467
0.576331
0.576146
0.575905
0.575611
0.575253
0.574814
0.574275
0.573623
0.572844
0.571926
0.570852
0.569605
0.568175
0.566564
0.564797
0.577699
0.577451
0.577202
0.577071
0.576992
0.576902
0.576774
0.576605
0.5764
0.576153
0.575848
0.575471
0.575015
0.574474
0.573844
0.573119
0.572294
0.571366
0.57035
0.569273
0.573489
0.57404
0.574531
0.574846
0.575026
0.57511
0.575113
0.575047
0.574919
0.57473
0.574474
0.57414
0.573719
0.573208
0.572602
0.571897
0.571088
0.570175
0.569171
0.568098
0.575236
0.575304
0.575468
0.575534
0.575489
0.575372
0.575206
0.574996
0.574743
0.574449
0.574104
0.573696
0.573212
0.572644
0.571987
0.571235
0.570382
0.569427
0.56838
0.56726
0.575972
0.575659
0.57548
0.57539
0.57529
0.575147
0.574959
0.574727
0.574453
0.574137
0.573769
0.573336
0.572825
0.572228
0.57154
0.570753
0.569864
0.568868
0.567775
0.566601
0.576368
0.576012
0.57575
0.575624
0.575522
0.575377
0.575171
0.574909
0.574597
0.574237
0.573822
0.573341
0.572782
0.572136
0.571397
0.570559
0.569615
0.568564
0.567409
0.566168
0.576661
0.576262
0.575915
0.575718
0.575575
0.575406
0.575182
0.574902
0.574573
0.574196
0.573765
0.573269
0.572693
0.572028
0.571264
0.570398
0.569422
0.568333
0.567135
0.565843
0.576946
0.576413
0.575952
0.575684
0.5755
0.575312
0.575081
0.574798
0.574466
0.574088
0.573659
0.573163
0.572585
0.571914
0.571141
0.570259
0.569263
0.568149
0.566919
0.56559
0.57718
0.576447
0.575885
0.575569
0.575366
0.575177
0.574954
0.574681
0.574359
0.573989
0.573564
0.573072
0.572494
0.571819
0.571037
0.570142
0.569128
0.567992
0.566735
0.565375
0.577065
0.576546
0.576069
0.575768
0.575559
0.575359
0.575124
0.574837
0.574499
0.57411
0.573667
0.573155
0.572557
0.57186
0.571054
0.570133
0.569091
0.567925
0.566636
0.565242
0.576971
0.576572
0.576165
0.57589
0.575695
0.575505
0.575276
0.57499
0.574647
0.574249
0.573794
0.573268
0.572655
0.57194
0.571114
0.570172
0.569108
0.567918
0.566605
0.565187
0.576971
0.576572
0.576165
0.57589
0.575695
0.575505
0.575276
0.57499
0.574647
0.574249
0.573794
0.573268
0.572655
0.57194
0.571114
0.570172
0.569108
0.567918
0.566605
0.565187
0.577065
0.576546
0.576069
0.575767
0.575559
0.575359
0.575124
0.574837
0.574498
0.57411
0.573667
0.573154
0.572557
0.57186
0.571054
0.570133
0.569091
0.567925
0.566636
0.565242
0.57718
0.576447
0.575885
0.575568
0.575365
0.575176
0.574953
0.574681
0.574359
0.573988
0.573564
0.573071
0.572494
0.571819
0.571037
0.570142
0.569128
0.567991
0.566735
0.565374
0.576946
0.576413
0.575952
0.575683
0.5755
0.575311
0.57508
0.574797
0.574466
0.574088
0.573658
0.573162
0.572585
0.571914
0.571141
0.570259
0.569263
0.568149
0.566919
0.565589
0.576661
0.576262
0.575914
0.575717
0.575574
0.575405
0.575181
0.574902
0.574572
0.574195
0.573765
0.573269
0.572693
0.572028
0.571265
0.570398
0.569422
0.568333
0.567135
0.565842
0.576368
0.576011
0.575749
0.575623
0.575521
0.575376
0.57517
0.574908
0.574596
0.574236
0.573822
0.573341
0.572782
0.572137
0.571398
0.570559
0.569615
0.568563
0.567409
0.566168
0.575972
0.575658
0.575479
0.575388
0.575288
0.575145
0.574958
0.574726
0.574453
0.574136
0.573768
0.573335
0.572825
0.572229
0.57154
0.570754
0.569864
0.568868
0.567775
0.566601
0.575236
0.575304
0.575467
0.575532
0.575487
0.575371
0.575205
0.574995
0.574743
0.574449
0.574104
0.573696
0.573212
0.572645
0.571988
0.571236
0.570382
0.569427
0.56838
0.56726
0.573489
0.57404
0.574531
0.574845
0.575024
0.575107
0.575112
0.575047
0.574919
0.57473
0.574474
0.57414
0.57372
0.573209
0.572604
0.571898
0.571089
0.570176
0.569171
0.568099
0.577699
0.577451
0.577201
0.577069
0.576989
0.576899
0.576772
0.576604
0.576399
0.576152
0.575847
0.575471
0.575015
0.574475
0.573845
0.57312
0.572294
0.571367
0.570351
0.569274
0.578178
0.577934
0.577699
0.577593
0.57755
0.577509
0.577442
0.57735
0.577239
0.577106
0.576939
0.576727
0.576469
0.576164
0.575815
0.575422
0.574985
0.574511
0.574014
0.573522
0.573964
0.57452
0.575026
0.575366
0.575582
0.575713
0.575778
0.575788
0.575754
0.57568
0.575562
0.575393
0.57517
0.574895
0.574568
0.574193
0.573771
0.573308
0.572819
0.572328
0.575712
0.575785
0.575965
0.576058
0.576048
0.575979
0.575875
0.575742
0.575586
0.575408
0.575204
0.574964
0.57468
0.574351
0.573976
0.573557
0.573094
0.572592
0.572063
0.571528
0.576446
0.57614
0.575983
0.575922
0.575858
0.575764
0.575641
0.575491
0.575318
0.575123
0.574901
0.574641
0.574335
0.573981
0.573579
0.573129
0.572633
0.572095
0.571525
0.57094
0.576836
0.576495
0.576265
0.576173
0.576112
0.576022
0.575888
0.575716
0.575512
0.575279
0.575015
0.574712
0.574363
0.573962
0.573512
0.573013
0.572465