/*--------------------------------*- C++ -*----------------------------------*\
  =========                 |
  \\      /  F ield         | OpenFOAM: The Open Source CFD Toolbox
   \\    /   O peration     | Website:  https://openfoam.org
    \\  /    A nd           | Version:  10
     \\/     M anipulation  |
\*---------------------------------------------------------------------------*/
FoamFile
{
    format      ascii;
    class       volScalarField;
    location    "100";
    object      T;
}
// * * * * * * * * * * * * * * * * * * * * * * * * * * * * * * * * * * * * * //

dimensions      [0 0 0 1 0 0 0];

internalField   nonuniform List<scalar> 
112000
(
999.746
999.12
998.782
998.677
998.624
998.534
998.381
998.154
997.839
997.409
996.832
996.074
995.093
993.831
992.201
990.074
987.241
983.342
977.754
967.501
999.673
999.302
999.007
998.796
998.593
998.35
998.047
997.675
997.222
996.664
995.972
995.113
994.042
992.704
991.013
988.844
985.99
982.097
976.559
966.333
999.714
999.312
998.925
998.565
998.211
997.835
997.417
996.945
996.405
995.775
995.023
994.114
993.002
991.63
989.915
987.729
984.87
980.979
975.462
965.221
999.653
999.153
998.704
998.31
997.93
997.529
997.086
996.588
996.021
995.361
994.578
993.634
992.487
991.079
989.327
987.101
984.198
980.256
974.678
964.297
999.65
999.149
998.709
998.321
997.935
997.514
997.042
996.508
995.898
995.191
994.358
993.362
992.162
990.699
988.889
986.602
983.629
979.607
973.934
963.397
999.649
999.146
998.702
998.31
997.916
997.487
997.004
996.457
995.833
995.11
994.257
993.24
992.015
990.522
988.675
986.342
983.313
979.22
973.454
962.756
999.649
999.147
998.705
998.314
997.922
997.492
997.007
996.457
995.826
995.094
994.23
993.197
991.952
990.434
988.557
986.186
983.11
978.957
973.114
962.294
999.649
999.148
998.707
998.316
997.924
997.494
997.007
996.454
995.82
995.083
994.212
993.17
991.914
990.382
988.486
986.093
982.986
978.793
972.895
961.982
999.649
999.148
998.708
998.319
997.926
997.496
997.009
996.455
995.819
995.079
994.205
993.159
991.896
990.356
988.45
986.041
982.916
978.696
972.762
961.792
999.649
999.149
998.709
998.32
997.928
997.497
997.009
996.455
995.818
995.077
994.201
993.153
991.888
990.344
988.432
986.016
982.881
978.649
972.697
961.698
999.649
999.149
998.709
998.32
997.928
997.497
997.009
996.455
995.818
995.077
994.201
993.153
991.888
990.344
988.432
986.016
982.881
978.649
972.697
961.698
999.649
999.148
998.708
998.319
997.926
997.496
997.009
996.455
995.819
995.079
994.205
993.159
991.896
990.356
988.45
986.041
982.916
978.696
972.762
961.792
999.649
999.148
998.706
998.316
997.924
997.493
997.007
996.454
995.82
995.083
994.211
993.17
991.914
990.382
988.486
986.093
982.986
978.792
972.894
961.981
999.649
999.147
998.704
998.314
997.921
997.492
997.007
996.457
995.826
995.094
994.229
993.197
991.952
990.434
988.557
986.186
983.11
978.957
973.113
962.293
999.649
999.146
998.702
998.31
997.916
997.486
997.003
996.457
995.833
995.109
994.257
993.24
992.014
990.522
988.675
986.342
983.313
979.219
973.453
962.755
999.65
999.149
998.708
998.321
997.935
997.514
997.042
996.508
995.898
995.191
994.357
993.362
992.162
990.699
988.889
986.601
983.628
979.606
973.933
963.396
999.653
999.153
998.704
998.309
997.929
997.528
997.085
996.588
996.021
995.361
994.577
993.634
992.487
991.079
989.326
987.1
984.197
980.255
974.676
964.295
999.714
999.312
998.924
998.565
998.211
997.834
997.416
996.944
996.404
995.774
995.023
994.113
993.001
991.63
989.914
987.728
984.868
980.978
975.46
965.218
999.673
999.302
999.007
998.795
998.592
998.349
998.046
997.675
997.221
996.663
995.972
995.112
994.042
992.703
991.012
988.842
985.989
982.095
976.556
966.33
999.746
999.12
998.782
998.676
998.624
998.534
998.38
998.154
997.839
997.409
996.832
996.075
995.094
993.831
992.201
990.073
987.241
983.341
977.753
967.499
999.67
999.296
998.995
998.773
998.557
998.297
997.975
997.58
997.101
996.515
995.793
994.904
993.804
992.443
990.743
988.598
985.847
982.252
977.504
970.565
1000.62
1001.2
1001.53
1001.63
1001.56
1001.35
1001.03
1000.59
1000.05
999.377
998.565
997.579
996.382
994.921
993.123
990.878
988.028
984.33
979.465
972.417
1000.24
1000.57
1000.76
1000.8
1000.71
1000.53
1000.25
999.883
999.41
998.819
998.086
997.178
996.057
994.669
992.941
990.765
987.981
984.349
979.549
972.566
1000.11
1000.27
1000.3
1000.22
1000.05
999.806
999.49
999.095
998.611
998.018
997.291
996.395
995.291
993.924
992.22
990.07
987.312
983.704
978.927
971.94
1000.1
1000.22
1000.2
1000.06
999.819
999.501
999.11
998.644
998.095
997.443
996.664
995.723
994.58
993.179
991.444
989.264
986.476
982.835
978.021
970.969
1000.1
1000.22
1000.19
1000.02
999.751
999.398
998.968
998.46
997.865
997.167
996.341
995.353
994.162
992.712
990.925
988.69
985.841
982.13
977.235
970.064
1000.1
1000.22
1000.19
1000.02
999.742
999.379
998.934
998.406
997.788
997.063
996.207
995.185
993.955
992.463
990.63
988.341
985.431
981.649
976.669
969.381
1000.1
1000.22
1000.19
1000.02
999.744
999.377
998.927
998.392
997.764
997.027
996.155
995.114
993.863
992.344
990.48
988.154
985.2
981.363
976.315
968.93
1000.1
1000.22
1000.2
1000.03
999.748
999.38
998.927
998.39
997.758
997.016
996.137
995.087
993.824
992.292
990.409
988.062
985.08
981.208
976.115
968.667
1000.1
1000.23
1000.2
1000.03
999.749
999.381
998.928
998.39
997.757
997.012
996.131
995.077
993.81
992.271
990.381
988.023
985.028
981.139
976.025
968.545
1000.1
1000.23
1000.2
1000.03
999.749
999.381
998.928
998.39
997.757
997.012
996.131
995.077
993.81
992.271
990.381
988.023
985.028
981.139
976.025
968.545
1000.1
1000.22
1000.2
1000.03
999.747
999.379
998.927
998.39
997.758
997.016
996.137
995.087
993.824
992.292
990.409
988.062
985.08
981.208
976.115
968.667
1000.1
1000.22
1000.19
1000.02
999.744
999.377
998.927
998.392
997.764
997.027
996.155
995.114
993.863
992.344
990.48
988.154
985.2
981.363
976.315
968.93
1000.1
1000.22
1000.19
1000.02
999.742
999.379
998.934
998.406
997.788
997.063
996.206
995.184
993.955
992.463
990.629
988.341
985.431
981.649
976.669
969.38
1000.1
1000.22
1000.19
1000.02
999.75
999.398
998.968
998.459
997.865
997.167
996.341
995.353
994.161
992.711
990.925
988.689
985.84
982.13
977.235
970.063
1000.1
1000.22
1000.2
1000.06
999.819
999.501
999.11
998.644
998.094
997.443
996.664
995.723
994.58
993.179
991.443
989.263
986.475
982.834
978.02
970.968
1000.11
1000.27
1000.3
1000.22
1000.05
999.806
999.49
999.095
998.61
998.017
997.29
996.395
995.29
993.924
992.219
990.069
987.311
983.702
978.925
971.938
1000.24
1000.57
1000.76
1000.8
1000.71
1000.53
1000.25
999.882
999.41
998.819
998.085
997.178
996.056
994.668
992.94
990.764
987.98
984.347
979.547
972.564
1000.62
1001.2
1001.53
1001.63
1001.56
1001.35
1001.03
1000.59
1000.04
999.375
998.563
997.578
996.381
994.92
993.121
990.877
988.026
984.328
979.462
972.414
999.67
999.297
998.995
998.773
998.557
998.297
997.975
997.58
997.101
996.514
995.793
994.903
993.804
992.442
990.742
988.596
985.845
982.25
977.502
970.562
999.71
999.303
998.909
998.544
998.184
997.802
997.379
996.903
996.363
995.735
994.994
994.107
993.038
991.742
990.159
988.206
985.777
982.726
978.901
973.844
1000.23
1000.57
1000.75
1000.78
1000.69
1000.51
1000.23
999.861
999.39
998.805
998.082
997.192
996.101
994.765
993.125
991.1
988.577
985.409
981.432
976.196
1000.65
1001.21
1001.58
1001.73
1001.69
1001.54
1001.28
1000.92
1000.46
999.877
999.159
998.275
997.189
995.858
994.222
992.199
989.675
986.499
982.505
977.244
1000.19
1000.44
1000.7
1000.85
1000.89
1000.82
1000.66
1000.39
1000.01
999.505
998.856
998.034
997.004
995.724
994.134
992.152
989.664
986.519
982.546
977.289
1000.13
1000.26
1000.36
1000.38
1000.31
1000.17
999.948
999.644
999.246
998.736
998.091
997.28
996.267
995.006
993.437
991.475
989.006
985.874
981.913
976.645
1000.13
1000.24
1000.29
1000.24
1000.1
999.884
999.594
999.226
998.769
998.208
997.516
996.665
995.616
994.323
992.724
990.732
988.23
985.064
981.063
975.731
1000.13
1000.25
1000.29
1000.22
1000.05
999.802
999.475
999.065
998.564
997.956
997.218
996.319
995.222
993.88
992.23
990.184
987.626
984.396
980.325
974.901
1000.13
1000.26
1000.3
1000.22
1000.05
999.785
999.443
999.015
998.492
997.859
997.092
996.161
995.029
993.648
991.955
989.862
987.251
983.96
979.819
974.303
1000.14
1000.26
1000.3
1000.23
1000.05
999.785
999.438
999.004
998.472
997.827
997.046
996.098
994.946
993.543
991.823
989.699
987.051
983.717
979.524
973.942
1000.14
1000.26
1000.31
1000.23
1000.05
999.787
999.438
999.001
998.466
997.818
997.031
996.077
994.917
993.504
991.772
989.633
986.967
983.611
979.392
973.775
1000.14
1000.26
1000.31
1000.23
1000.05
999.787
999.438
999.001
998.466
997.818
997.031
996.077
994.917
993.504
991.772
989.633
986.967
983.611
979.392
973.775
1000.14
1000.26
1000.3
1000.23
1000.05
999.785
999.438
999.003
998.472
997.827
997.046
996.098
994.946
993.543
991.823
989.699
987.051
983.717
979.524
973.941
1000.13
1000.26
1000.3
1000.22
1000.05
999.785
999.443
999.015
998.492
997.859
997.092
996.161
995.029
993.648
991.955
989.862
987.25
983.96
979.818
974.302
1000.13
1000.25
1000.29
1000.22
1000.05
999.802
999.475
999.065
998.564
997.956
997.218
996.319
995.222
993.88
992.23
990.184
987.626
984.396
980.324
974.9
1000.13
1000.24
1000.29
1000.24
1000.1
999.884
999.594
999.226
998.769
998.207
997.516
996.664
995.616
994.323
992.723
990.731
988.23
985.063
981.062
975.73
1000.13
1000.26
1000.36
1000.38
1000.31
1000.17
999.947
999.643
999.245
998.736
998.09
997.279
996.266
995.006
993.437
991.475
989.005
985.873
981.911
976.643
1000.19
1000.44
1000.7
1000.85
1000.89
1000.82
1000.66
1000.39
1000.01
999.505
998.855
998.033
997.004
995.724
994.134
992.151
989.663
986.517
982.545
977.287
1000.65
1001.21
1001.58
1001.72
1001.69
1001.54
1001.28
1000.92
1000.46
999.876
999.158
998.274
997.188
995.857
994.221
992.197
989.673
986.497
982.502
977.242
1000.23
1000.57
1000.75
1000.78
1000.69
1000.51
1000.23
999.859
999.388
998.803
998.079
997.19
996.099
994.763
993.123
991.097
988.574
985.406
981.428
976.192
999.71
999.304
998.91
998.544
998.184
997.802
997.379
996.904
996.362
995.735
994.993
994.107
993.038
991.741
990.157
988.204
985.774
982.723
978.898
973.84
999.65
999.15
998.705
998.32
997.956
997.577
997.165
996.707
996.191
995.597
994.899
994.072
993.086
991.907
990.491
988.785
986.721
984.221
981.219
977.541
1000.11
1000.27
1000.31
1000.23
1000.08
999.856
999.563
999.197
998.75
998.207
997.545
996.739
995.76
994.573
993.135
991.387
989.258
986.666
983.537
979.701
1000.19
1000.45
1000.7
1000.86
1000.91
1000.85
1000.7
1000.44
1000.09
999.611
999
998.232
997.279
996.107
994.672
992.916
990.767
988.141
984.962
981.053
1000.35
1000.63
1000.94
1001.18
1001.3
1001.29
1001.17
1000.94
1000.6
1000.14
999.552
998.799
997.859
996.698
995.271
993.521
991.374
988.742
985.546
981.602
1000.03
1000.09
1000.27
1000.46
1000.57
1000.58
1000.5
1000.32
1000.03
999.626
999.083
998.378
997.484
996.366
994.978
993.262
991.144
988.534
985.354
981.404
999.997
999.975
1000.03
1000.08
1000.09
1000.03
999.887
999.662
999.346
998.923
998.37
997.664
996.772
995.659
994.278
992.569
990.455
987.846
984.663
980.692
1000
999.973
999.987
999.989
999.934
999.807
999.604
999.32
998.948
998.472
997.873
997.124
996.193
995.043
993.627
991.884
989.735
987.09
983.869
979.845
1000
999.983
999.993
999.979
999.9
999.745
999.51
999.19
998.78
998.264
997.623
996.831
995.856
994.662
993.2
991.41
989.211
986.513
983.234
979.139
1000.01
999.99
1000
999.985
999.899
999.734
999.487
999.152
998.723
998.186
997.521
996.701
995.697
994.471
992.975
991.146
988.906
986.161
982.831
978.675
1000.01
999.993
1000.01
999.99
999.902
999.734
999.483
999.143
998.707
998.162
997.487
996.656
995.639
994.397
992.883
991.034
988.771
986.001
982.643
978.452
1000.01
999.993
1000.01
999.99
999.902
999.734
999.483
999.143
998.707
998.162
997.487
996.656
995.639
994.397
992.883
991.034
988.771
986.001
982.643
978.452
1000.01
999.99
1000
999.985
999.899
999.734
999.487
999.152
998.723
998.186
997.52
996.701
995.697
994.471
992.975
991.146
988.906
986.161
982.831
978.674
1000
999.983
999.993
999.979
999.9
999.745
999.51
999.19
998.78
998.264
997.623
996.83
995.856
994.662
993.2
991.409
989.211
986.512
983.233
979.138
1000
999.973
999.987
999.989
999.934
999.807
999.604
999.32
998.948
998.472
997.873
997.123
996.192
995.043
993.627
991.883
989.735
987.09
983.868
979.844
999.997
999.975
1000.03
1000.08
1000.09
1000.03
999.886
999.662
999.346
998.922
998.37
997.663
996.772
995.659
994.278
992.568
990.454
987.845
984.662
980.691
1000.03
1000.09
1000.27
1000.46
1000.57
1000.58
1000.5
1000.32
1000.03
999.626
999.082
998.378
997.484
996.365
994.977
993.262
991.143
988.533
985.352
981.402
1000.35
1000.63
1000.94
1001.18
1001.3
1001.29
1001.17
1000.94
1000.6
1000.14
999.551
998.799
997.859
996.697
995.27
993.52
991.372
988.74
985.544
981.599
1000.19
1000.45
1000.7
1000.86
1000.91
1000.85
1000.7
1000.44
1000.08
999.609
998.999
998.231
997.278
996.106
994.67
992.914
990.765
988.139
984.959
981.05
1000.11
1000.27
1000.31
1000.23
1000.08
999.854
999.561
999.195
998.748
998.205
997.543
996.737
995.758
994.571
993.132
991.384
989.255
986.662
983.534
979.697
999.65
999.151
998.706
998.321
997.956
997.577
997.165
996.707
996.19
995.596
994.898
994.071
993.085
991.906
990.489
988.783
986.718
984.218
981.216
977.537
999.648
999.152
998.725
998.362
998.012
997.641
997.235
996.787
996.287
995.72
995.067
994.306
993.418
992.378
991.158
989.722
988.033
986.052
983.759
981.111
1000.1
1000.23
1000.23
1000.11
999.911
999.643
999.315
998.928
998.478
997.951
997.33
996.593
995.72
994.682
993.451
991.988
990.252
988.203
985.814
983.044
1000.13
1000.27
1000.39
1000.43
1000.39
1000.29
1000.11
999.867
999.541
999.123
998.595
997.935
997.12
996.127
994.925
993.475
991.736
989.663
987.232
984.394
1000.03
1000.1
1000.28
1000.48
1000.61
1000.64
1000.59
1000.44
1000.19
999.836
999.359
998.74
997.957
996.987
995.798
994.352
992.607
990.519
988.058
985.168
1000.22
1000.33
1000.52
1000.71
1000.82
1000.83
1000.75
1000.58
1000.33
999.972
999.501
998.891
998.121
997.163
995.986
994.551
992.813
990.724
988.255
985.342
999.974
999.923
999.999
1000.12
1000.21
1000.22
1000.15
1000.01
999.773
999.441
998.993
998.407
997.66
996.724
995.567
994.149
992.424
990.345
987.881
984.957
999.949
999.838
999.813
999.833
999.829
999.771
999.649
999.458
999.192
998.835
998.369
997.771
997.015
996.072
994.909
993.486
991.756
989.67
987.198
984.255
999.954
999.842
999.789
999.761
999.704
999.592
999.418
999.176
998.861
998.459
997.952
997.314
996.522
995.546
994.351
992.897
991.137
989.021
986.519
983.537
999.957
999.853
999.798
999.757
999.679
999.543
999.342
999.071
998.724
998.289
997.747
997.075
996.247
995.235
994.005
992.515
990.718
988.565
986.025
983.002
999.959
999.858
999.805
999.762
999.678
999.534
999.324
999.042
998.681
998.231
997.671
996.981
996.135
995.102
993.85
992.338
990.518
988.34
985.776
982.725
999.959
999.858
999.805
999.761
999.678
999.534
999.324
999.042
998.681
998.231
997.671
996.981
996.134
995.102
993.85
992.338
990.518
988.34
985.776
982.725
999.957
999.853
999.798
999.757
999.679
999.543
999.342
999.071
998.724
998.289
997.747
997.075
996.247
995.235
994.005
992.515
990.718
988.565
986.025
983.001
999.954
999.842
999.789
999.761
999.704
999.592
999.417
999.176
998.861
998.459
997.951
997.314
996.522
995.546
994.351
992.897
991.137
989.02
986.518
983.537
999.949
999.838
999.813
999.832
999.829
999.771
999.649
999.458
999.191
998.835
998.369
997.77
997.014
996.072
994.909
993.486
991.756
989.67
987.198
984.254
999.974
999.923
999.999
1000.12
1000.21
1000.22
1000.15
1000.01
999.773
999.441
998.992
998.407
997.66
996.724
995.567
994.148
992.423
990.344
987.88
984.956
1000.22
1000.33
1000.52
1000.71
1000.82
1000.83
1000.75
1000.58
1000.33
999.972
999.5
998.891
998.12
997.163
995.986
994.55
992.812
990.723
988.254
985.34
1000.03
1000.1
1000.28
1000.48
1000.61
1000.64
1000.58
1000.44
1000.19
999.835
999.358
998.739
997.956
996.986
995.796
994.351
992.606
990.517
988.055
985.166
1000.13
1000.27
1000.39
1000.43
1000.39
1000.29
1000.11
999.866
999.54
999.122
998.593
997.933
997.119
996.126
994.923
993.473
991.733
989.66
987.229
984.391
1000.1
1000.23
1000.23
1000.11
999.909
999.641
999.313
998.927
998.476
997.949
997.328
996.591
995.718
994.681
993.449
991.986
990.249
988.199
985.81
983.04
999.648
999.152
998.726
998.362
998.012
997.641
997.235
996.786
996.286
995.719
995.065
994.305
993.417
992.377
991.156
989.72
988.03
986.048
983.755
981.107
999.649
999.156
998.737
998.387
998.056
997.71
997.336
996.931
996.485
995.987
995.42
994.768
994.017
993.152
992.152
990.999
989.671
988.158
986.462
984.596
1000.1
1000.23
1000.23
1000.11
999.91
999.645
999.324
998.954
998.531
998.047
997.49
996.842
996.09
995.215
994.197
993.016
991.651
990.085
988.318
986.364
1000.13
1000.26
1000.34
1000.33
1000.25
1000.11
999.92
999.67
999.359
998.977
998.51
997.942
997.255
996.432
995.453
994.298
992.943
991.372
989.581
987.582
999.998
999.988
1000.06
1000.15
1000.21
1000.2
1000.13
999.99
999.781
999.489
999.101
998.599
997.968
997.19
996.246
995.113
993.769
992.195
990.388
988.353
999.974
999.928
1000.01
1000.16
1000.26
1000.3
1000.27
1000.17
999.995
999.734
999.375
998.9
998.294
997.537
996.609
995.488
994.148
992.571
990.753
988.693
1000.16
1000.18
1000.27
1000.39
1000.47
1000.47
1000.39
1000.25
1000.04
999.756
999.376
998.887
998.269
997.504
996.569
995.442
994.097
992.513
990.684
988.605
999.95
999.842
999.846
999.915
999.97
999.97
999.907
999.776
999.577
999.299
998.928
998.447
997.836
997.076
996.146
995.022
993.679
992.095
990.266
988.177
999.929
999.774
999.695
999.673
999.65
999.59
999.48
999.314
999.086
998.787
998.401
997.908
997.289
996.523
995.588
994.46
993.113
991.526
989.695
987.599
999.933
999.779
999.676
999.614
999.544
999.438
999.283
999.075
998.808
998.472
998.053
997.531
996.885
996.096
995.141
993.995
992.633
991.033
989.191
987.083
999.936
999.786
999.681
999.608
999.522
999.397
999.222
998.991
998.701
998.342
997.9
997.357
996.691
995.882
994.909
993.747
992.37
990.758
988.905
986.788
999.936
999.786
999.681
999.608
999.522
999.397
999.222
998.991
998.701
998.342
997.9
997.357
996.691
995.882
994.909
993.747
992.37
990.758
988.905
986.788
999.933
999.779
999.676
999.614
999.544
999.438
999.283
999.075
998.808
998.472
998.053
997.53
996.885
996.096
995.14
993.994
992.632
991.033
989.19
987.083
999.929
999.774
999.695
999.673
999.65
999.59
999.48
999.314
999.086
998.787
998.401
997.908
997.289
996.523
995.588
994.46
993.113
991.526
989.694
987.598
999.949
999.842
999.846
999.915
999.969
999.97
999.906
999.776
999.577
999.298
998.928
998.446
997.836
997.076
996.146
995.022
993.679
992.095
990.265
988.176
1000.16
1000.18
1000.27
1000.39
1000.47
1000.47
1000.39
1000.25
1000.04
999.756
999.376
998.886
998.269
997.504
996.569
995.442
994.096
992.512
990.683
988.603
999.974
999.928
1000.01
1000.15
1000.26
1000.3
1000.27
1000.17
999.994
999.733
999.374
998.9
998.293
997.536
996.609
995.487
994.147
992.57
990.751
988.691
999.998
999.988
1000.06
1000.15
1000.2
1000.2
1000.13
999.989
999.78
999.488
999.1
998.598
997.967
997.189
996.245
995.112
993.767
992.193
990.385
988.351
1000.13
1000.26
1000.34
1000.33
1000.25
1000.11
999.919
999.669
999.358
998.976
998.509
997.94
997.253
996.43
995.451
994.296
992.941
991.369
989.578
987.579
1000.1
1000.23
1000.23
1000.11
999.909
999.643
999.323
998.952
998.529
998.045
997.487
996.84
996.088
995.213
994.195
993.014
991.648
990.081
988.314
986.36
999.649
999.157
998.738
998.387
998.055
997.709
997.336
996.93
996.484
995.986
995.418
994.767
994.016
993.15
992.151
990.996
989.668
988.155
986.458
984.592
999.65
999.165
998.76
998.432
998.129
997.818
997.488
997.135
996.753
996.332
995.859
995.323
994.715
994.026
993.246
992.365
991.375
990.277
989.084
987.832
1000.1
1000.24
1000.26
1000.16
999.974
999.735
999.448
999.119
998.748
998.33
997.856
997.316
996.698
995.995
995.195
994.288
993.265
992.125
990.879
989.561
1000.14
1000.28
1000.36
1000.36
1000.28
1000.15
999.969
999.742
999.466
999.135
998.74
998.27
997.712
997.057
996.296
995.417
994.411
993.276
992.021
990.679
1000
999.994
1000.05
1000.11
1000.13
1000.1
1000.02
999.891
999.707
999.461
999.143
998.742
998.246
997.644
996.926
996.082
995.101
993.979
992.726
991.37
999.95
999.853
999.853
999.913
999.963
999.975
999.94
999.857
999.722
999.528
999.261
998.908
998.457
997.895
997.211
996.395
995.434
994.325
993.075
991.712
999.95
999.848
999.863
999.951
1000.03
1000.06
1000.04
999.967
999.834
999.639
999.371
999.017
998.563
997.999
997.312
996.491
995.525
994.408
993.148
991.769
1000.12
1000.09
1000.13
1000.2
1000.26
1000.26
1000.2
1000.08
999.91
999.68
999.381
999
998.523
997.937
997.231
996.393
995.412
994.282
993.01
991.616
999.936
999.799
999.762
999.797
999.835
999.837
999.788
999.685
999.527
999.309
999.021
998.649
998.18
997.601
996.901
996.069
995.093
993.969
992.703
991.312
999.918
999.739
999.628
999.583
999.555
999.505
999.419
999.288
999.112
998.882
998.589
998.216
997.75
997.177
996.486
995.664
994.701
993.591
992.342
990.966
999.921
999.739
999.607
999.528
999.462
999.378
999.259
999.1
998.899
998.649
998.34
997.956
997.483
996.907
996.216
995.397
994.44
993.338
992.1
990.736
999.921
999.739
999.607
999.528
999.462
999.378
999.259
999.1
998.899
998.649
998.34
997.956
997.483
996.907
996.216
995.397
994.44
993.338
992.1
990.736
999.918
999.739
999.628
999.583
999.554
999.505
999.418
999.288
999.112
998.882
998.588
998.216
997.75
997.177
996.486
995.664
994.701
993.591
992.342
990.966
999.936
999.799
999.762
999.797
999.835
999.836
999.787
999.684
999.527
999.309
999.021
998.649
998.18
997.601
996.901
996.069
995.093
993.969
992.703
991.311
1000.12
1000.09
1000.13
1000.2
1000.26
1000.26
1000.2
1000.08
999.91
999.68
999.381
999
998.523
997.937
997.231
996.393
995.411
994.281
993.009
991.615
999.95
999.848
999.863
999.95
1000.03
1000.06
1000.04
999.967
999.834
999.639
999.371
999.016
998.563
997.999
997.312
996.49
995.524
994.407
993.147
991.768
999.95
999.853
999.853
999.912
999.963
999.974
999.939
999.856
999.722
999.527
999.26
998.907
998.456
997.894
997.211
996.394
995.433
994.323
993.073
991.71
1000
999.994
1000.05
1000.1
1000.13
1000.1
1000.02
999.891
999.706
999.46
999.142
998.741
998.245
997.643
996.925
996.08
995.099
993.977
992.723
991.368
1000.14
1000.28
1000.36
1000.36
1000.28
1000.15
999.968
999.74
999.464
999.134
998.739
998.268
997.71
997.056
996.294
995.414
994.408
993.273
992.018
990.676
1000.1
1000.25
1000.26
1000.15
999.973
999.733
999.446
999.117
998.746
998.328
997.854
997.314
996.697
995.993
995.193
994.285
993.262
992.121
990.875
989.557
999.65
999.165
998.761
998.432
998.128
997.818
997.488
997.135
996.752
996.331
995.858
995.322
994.714
994.024
993.244
992.362
991.372
990.274
989.081
987.828
999.652
999.174
998.785
998.478
998.204
997.931
997.647
997.351
997.039
996.703
996.333
995.922
995.464
994.956
994.395
993.776
993.1
992.37
991.604
990.84
1000.11
1000.26
1000.29
1000.21
1000.05
999.85
999.607
999.333
999.029
998.692
998.318
997.898
997.427
996.903
996.321
995.678
994.972
994.209
993.404
992.594
1000.14
1000.29
1000.39
1000.41
1000.35
1000.25
1000.11
999.929
999.711
999.453
999.149
998.791
998.374
997.894
997.347
996.731
996.044
995.292
994.488
993.668
1000.01
1000.01
1000.08
1000.14
1000.18
1000.16
1000.11
1000.01
999.87
999.686
999.45
999.155
998.795
998.366
997.863
997.285
996.629
995.9
995.111
994.296
999.957
999.866
999.855
999.893
999.924
999.927
999.897
999.833
999.735
999.597
999.411
999.167
998.858
998.476
998.017
997.478
996.856
996.155
995.388
994.587
999.931
999.789
999.738
999.76
999.797
999.814
999.8
999.753
999.672
999.551
999.383
999.157
998.864
998.497
998.052
997.525
996.914
996.222
995.46
994.662
999.937
999.806
999.781
999.835
999.901
999.94
999.937
999.892
999.806
999.676
999.497
999.257
998.95
998.569
998.11
997.57
996.947
996.244
995.473
994.665
1000.09
1000.03
1000.03
1000.08
1000.13
1000.14
1000.11
1000.04
999.923
999.769
999.568
999.31
998.988
998.593
998.123
997.574
996.945
996.237
995.464
994.651
999.926
999.767
999.703
999.72
999.76
999.782
999.769
999.718
999.628
999.498
999.321
999.088
998.789
998.418
997.97
997.443
996.835
996.149
995.395
994.6
999.907
999.707
999.578
999.533
999.526
999.518
999.489
999.431
999.344
999.224
999.062
998.848
998.57
998.221
997.797
997.294
996.71
996.047
995.317
994.543
999.907
999.707
999.578
999.533
999.526
999.518
999.489
999.431
999.344
999.224
999.062
998.848
998.57
998.221
997.797
997.294
996.71
996.047
995.317
994.543
999.926
999.767
999.703
999.72
999.759
999.782
999.769
999.718
999.628
999.498
999.321
999.088
998.789
998.418
997.97
997.443
996.835
996.148
995.395
994.6
1000.09
1000.03
1000.03
1000.08
1000.13
1000.14
1000.11
1000.04
999.923
999.768
999.567
999.31
998.987
998.593
998.123
997.574
996.945
996.237
995.463
994.65
999.937
999.806
999.781
999.835
999.901
999.939
999.936
999.891
999.805
999.676
999.496
999.257
998.95
998.569
998.11
997.57
996.946
996.243
995.472
994.664
999.931
999.789
999.738
999.76
999.796
999.813
999.799
999.752
999.671
999.551
999.383
999.156
998.863
998.496
998.051
997.524
996.913
996.22
995.459
994.661
999.957
999.866
999.855
999.892
999.924
999.927
999.896
999.832
999.734
999.596
999.41
999.167
998.857
998.475
998.016
997.477
996.855
996.154
995.386
994.585
1000.01
1000.01
1000.08
1000.14
1000.18
1000.16
1000.11
1000.01
999.87
999.685
999.449
999.154
998.794
998.365
997.862
997.283
996.627
995.898
995.108
994.294
1000.14
1000.29
1000.39
1000.41
1000.35
1000.25
1000.11
999.928
999.71
999.452
999.147
998.79
998.373
997.892
997.345
996.729
996.042
995.289
994.485
993.665
1000.11
1000.26
1000.29
1000.2
1000.05
999.848
999.605
999.331
999.027
998.69
998.316
997.896
997.426
996.901
996.319
995.675
994.969
994.206
993.401
992.59
999.652
999.175
998.785
998.478
998.203
997.93
997.647
997.35
997.038
996.702
996.332
995.92
995.463
994.955
994.393
993.774
993.096
992.367
991.6
990.836
999.653
999.184
998.809
998.525
998.282
998.048
997.813
997.577
997.338
997.089
996.824
996.538
996.229
995.897
995.544
995.17
994.777
994.372
993.97
993.603
1000.11
1000.27
1000.31
1000.26
1000.14
999.971
999.778
999.564
999.333
999.084
998.815
998.52
998.2
997.855
997.484
997.089
996.674
996.246
995.819
995.422
1000.14
1000.31
1000.42
1000.46
1000.44
1000.37
1000.28
1000.16
1000.01
999.835
999.633
999.398
999.128
998.825
998.489
998.123
997.729
997.316
996.898
996.505
1000.01
1000.03
1000.11
1000.2
1000.26
1000.28
1000.26
1000.22
1000.14
1000.04
999.896
999.718
999.502
999.247
998.954
998.627
998.268
997.885
997.493
997.119
999.963
999.886
999.889
999.938
999.984
1000.01
1000.01
999.984
999.939
999.871
999.775
999.644
999.476
999.269
999.024
998.742
998.425
998.082
997.725
997.384
999.937
999.804
999.746
999.753
999.78
999.797
999.796
999.778
999.744
999.69
999.613
999.504
999.36
999.178
998.958
998.701
998.411
998.094
997.763
997.447
999.92
999.755
999.673
999.675
999.709
999.741
999.756
999.751
999.727
999.684
999.615
999.515
999.377
999.201
998.986
998.735
998.451
998.141
997.817
997.506
999.927
999.774
999.723
999.761
999.83
999.89
999.926
999.935
999.92
999.881
999.814
999.714
999.575
999.396
999.178
998.924
998.637
998.323
997.995
997.678
1000.07
999.978
999.955
1000
1000.07
1000.12
1000.15
1000.15
1000.14
1000.09
1000.03
999.93
999.795
999.62
999.406
999.155
998.871
998.559
998.23
997.909
999.914
999.737
999.673
999.72
999.813
999.907
999.981
1000.03
1000.05
1000.05
1000.02
999.96
999.854
999.703
999.51
999.277
999.007
998.705
998.384
998.067
999.914
999.737
999.673
999.72
999.813
999.907
999.981
1000.03
1000.05
1000.05
1000.02
999.96
999.854
999.703
999.51
999.277
999.007
998.705
998.384
998.067
1000.07
999.978
999.954
1000
1000.07
1000.12
1000.15
1000.15
1000.14
1000.09
1000.03
999.93
999.795
999.62
999.406
999.155
998.871
998.559
998.229
997.909
999.927
999.774
999.722
999.761
999.83
999.89
999.926
999.935
999.92
999.88
999.814
999.714
999.575
999.396
999.178
998.924
998.637
998.323
997.994
997.677
999.92
999.755
999.673
999.675
999.709
999.741
999.755
999.751
999.727
999.683
999.615
999.514
999.377
999.2
998.986
998.735
998.451
998.14
997.816
997.505
999.937
999.804
999.746
999.753
999.779
999.796
999.796
999.778
999.743
999.69
999.612
999.504
999.359
999.177
998.957
998.701
998.41
998.093
997.762
997.445
999.963
999.886
999.889
999.938
999.983
1000.01
1000.01
999.983
999.938
999.87
999.774
999.643
999.475
999.269
999.023
998.741
998.424
998.08
997.723
997.382
1000.01
1000.03
1000.11
1000.2
1000.26
1000.28
1000.26
1000.22
1000.14
1000.03
999.895
999.717
999.501
999.246
998.953
998.626
998.267
997.883
997.49
997.117
1000.14
1000.31
1000.42
1000.46
1000.44
1000.37
1000.28
1000.15
1000.01
999.834
999.632
999.396
999.127
998.823
998.487
998.12
997.726
997.313
996.895
996.502
1000.11
1000.27
1000.31
1000.26
1000.13
999.969
999.776
999.562
999.331
999.082
998.812
998.518
998.198
997.853
997.482
997.087
996.671
996.242
995.815
995.419
999.653
999.185
998.81
998.525
998.281
998.047
997.812
997.576
997.337
997.088
996.823
996.536
996.227
995.896
995.542
995.167
994.774
994.369
993.967
993.599
999.655
999.193
998.834
998.572
998.36
998.165
997.979
997.804
997.637
997.476
997.316
997.152
996.989
996.827
996.671
996.523
996.387
996.27
996.184
996.146
1000.11
1000.28
1000.34
1000.31
1000.22
1000.09
999.951
999.798
999.641
999.482
999.318
999.15
998.978
998.806
998.637
998.476
998.326
998.195
998.097
998.049
1000.15
1000.32
1000.45
1000.51
1000.52
1000.5
1000.45
1000.39
1000.32
1000.24
1000.14
1000.03
999.91
999.781
999.649
999.519
999.396
999.289
999.209
999.176
1000.02
1000.04
1000.14
1000.25
1000.34
1000.4
1000.44
1000.45
1000.45
1000.43
1000.39
1000.34
1000.27
1000.19
1000.11
1000.02
999.939
999.87
999.825
999.826
999.966
999.901
999.922
999.992
1000.07
1000.13
1000.17
1000.2
1000.23
1000.24
1000.25
1000.24
1000.22
1000.19
1000.16
1000.12
1000.09
1000.07
1000.07
1000.12
999.942
999.821
999.777
999.798
999.843
999.886
999.922
999.953
999.98
1000.01
1000.03
1000.04
1000.05
1000.05
1000.05
1000.05
1000.05
1000.07
1000.12
1000.2
999.925
999.765
999.679
999.673