/*--------------------------------*- C++ -*----------------------------------*\
  =========                 |
  \\      /  F ield         | OpenFOAM: The Open Source CFD Toolbox
   \\    /   O peration     | Website:  https://openfoam.org
    \\  /    A nd           | Version:  10
     \\/     M anipulation  |
\*---------------------------------------------------------------------------*/
FoamFile
{
    format      ascii;
    class       volVectorField;
    location    "100";
    object      U;
}
// * * * * * * * * * * * * * * * * * * * * * * * * * * * * * * * * * * * * * //

dimensions      [0 1 -1 0 0 0 0];

internalField   nonuniform List<vector> 
112000
(
(275.083 -11.1267 11.048)
(277.51 -8.75931 8.59671)
(278.843 -7.36414 7.1161)
(279.29 -6.41606 6.08028)
(279.514 -5.70391 5.27761)
(279.843 -5.15374 4.63175)
(280.387 -4.73006 4.1046)
(281.192 -4.40829 3.66749)
(282.315 -4.17092 3.29699)
(283.833 -4.00872 2.9765)
(285.843 -3.9207 2.69581)
(288.462 -3.9126 2.44828)
(291.83 -3.99633 2.22825)
(296.13 -4.19221 2.03012)
(301.61 -4.53484 1.84832)
(308.635 -5.08539 1.67734)
(317.761 -5.95895 1.5109)
(329.921 -7.39096 1.34007)
(346.563 -9.91823 1.14227)
(375.263 -14.8828 0.96356)
(276.227 -12.1175 -2.7942)
(278.119 -9.2016 -4.24698)
(279.746 -7.33487 -4.61383)
(281.04 -6.07625 -4.59441)
(282.274 -5.16814 -4.46144)
(283.628 -4.49564 -4.28217)
(285.181 -4.00124 -4.0758)
(286.977 -3.64894 -3.85847)
(289.065 -3.41425 -3.64458)
(291.513 -3.28213 -3.44202)
(294.41 -3.24619 -3.25258)
(297.868 -3.30776 -3.07603)
(302.022 -3.4755 -2.91332)
(307.05 -3.76721 -2.76725)
(313.193 -4.21512 -2.64196)
(320.805 -4.87742 -2.5428)
(330.425 -5.86438 -2.47741)
(342.969 -7.40164 -2.45872)
(359.838 -10.0124 -2.51404)
(388.678 -14.9805 -2.64321)
(276.03 -12.0869 0.39552)
(278.066 -9.04758 0.764291)
(280.07 -7.03994 1.09257)
(281.953 -5.6792 1.31531)
(283.806 -4.70851 1.42095)
(285.73 -3.99733 1.44357)
(287.796 -3.47958 1.41431)
(290.06 -3.11613 1.3498)
(292.577 -2.88034 1.25904)
(295.415 -2.75468 1.1484)
(298.665 -2.73053 1.02229)
(302.442 -2.8076 0.882454)
(306.885 -2.99351 0.72768)
(312.171 -3.30526 0.554095)
(318.545 -3.77414 0.355348)
(326.356 -4.45716 0.122104)
(336.146 -5.46291 -0.159563)
(348.826 -7.01414 -0.511387)
(365.785 -9.63222 -0.971626)
(394.768 -14.5981 -1.56485)
(276.271 -12.0638 -0.0463316)
(278.664 -9.06642 -0.303196)
(280.897 -7.10507 -0.63781)
(282.914 -5.78317 -0.944811)
(284.871 -4.85141 -1.19619)
(286.893 -4.17895 -1.39468)
(289.064 -3.6972 -1.54889)
(291.443 -3.36562 -1.66806)
(294.085 -3.15676 -1.76101)
(297.057 -3.05264 -1.83662)
(300.448 -3.04455 -1.90399)
(304.372 -3.13238 -1.97211)
(308.966 -3.32389 -2.04966)
(314.406 -3.63604 -2.14565)
(320.936 -4.09978 -2.27067)
(328.906 -4.77157 -2.4383)
(338.862 -5.75931 -2.66683)
(351.723 -7.28465 -2.98181)
(368.88 -9.86854 -3.42182)
(398.223 -14.7932 -4.01443)
(276.272 -12.0337 -0.0813793)
(278.651 -9.03144 -0.187285)
(280.825 -7.06068 -0.269242)
(282.777 -5.71158 -0.308509)
(284.704 -4.74381 -0.317737)
(286.736 -4.03434 -0.317157)
(288.946 -3.51715 -0.319507)
(291.384 -3.15247 -0.331407)
(294.1 -2.91343 -0.35731)
(297.158 -2.78247 -0.401238)
(300.646 -2.75103 -0.467082)
(304.675 -2.81876 -0.55862)
(309.381 -2.9929 -0.680056)
(314.942 -3.28954 -0.837152)
(321.602 -3.73869 -1.03853)
(329.719 -4.39582 -1.29687)
(339.843 -5.36785 -1.63016)
(352.904 -6.8755 -2.06349)
(370.3 -9.43901 -2.63282)
(400.015 -14.341 -3.3655)
(276.272 -12.0226 -0.0811519)
(278.654 -9.01898 -0.174342)
(280.835 -7.05314 -0.265683)
(282.802 -5.70818 -0.356267)
(284.752 -4.74468 -0.447763)
(286.812 -4.04191 -0.541441)
(289.052 -3.53394 -0.637011)
(291.522 -3.17998 -0.73435)
(294.273 -2.95217 -0.834518)
(297.37 -2.83208 -0.939506)
(300.902 -2.81036 -1.05205)
(304.979 -2.88596 -1.17592)
(309.742 -3.06545 -1.31641)
(315.368 -3.36434 -1.48089)
(322.106 -3.81219 -1.67936)
(330.317 -4.46401 -1.92507)
(340.556 -5.42634 -2.23522)
(353.762 -6.91937 -2.63221)
(371.341 -9.46291 -3.14587)
(401.367 -14.3414 -3.80088)
(276.27 -12.0173 -0.0676305)
(278.647 -9.01106 -0.142018)
(280.82 -7.04593 -0.210021)
(282.779 -5.70071 -0.271758)
(284.72 -4.73396 -0.327485)
(286.772 -4.02556 -0.378633)
(289.007 -3.51039 -0.427333)
(291.477 -3.14807 -0.47624)
(294.234 -2.91092 -0.528413)
(297.343 -2.78069 -0.587162)
(300.893 -2.74821 -0.656207)
(304.996 -2.8126 -0.740028)
(309.793 -2.9806 -0.844155)
(315.465 -3.26786 -0.975415)
(322.263 -3.70389 -1.14227)
(330.548 -4.3436 -1.35531)
(340.882 -5.29327 -1.62803)
(354.21 -6.77261 -1.97777)
(371.94 -9.30081 -2.427)
(402.198 -14.1641 -2.9964)
(276.269 -12.0146 -0.0496948)
(278.641 -9.00654 -0.104021)
(280.81 -7.04179 -0.153235)
(282.765 -5.69749 -0.198608)
(284.705 -4.73093 -0.242139)
(286.76 -4.02214 -0.285951)
(289 -3.50663 -0.331601)
(291.478 -3.1443 -0.38032)
(294.245 -2.90743 -0.433546)
(297.366 -2.77765 -0.49315)
(300.933 -2.74567 -0.56149)
(305.057 -2.81053 -0.641464)
(309.881 -2.97883 -0.736643)
(315.586 -3.26599 -0.851491)
(322.425 -3.70127 -0.9917)
(330.763 -4.33924 -1.16463)
(341.163 -5.28578 -1.37985)
(354.575 -6.76017 -1.6497)
(372.413 -9.28107 -1.98971)
(402.843 -14.137 -2.41704)
(276.268 -12.0132 -0.0302181)
(278.638 -9.00416 -0.0632477)
(280.802 -7.0395 -0.0930964)
(282.755 -5.69576 -0.12048)
(284.695 -4.72934 -0.146603)
(286.749 -4.02001 -0.172622)
(288.99 -3.50348 -0.199256)
(291.469 -3.13977 -0.227132)
(294.239 -2.90118 -0.257193)
(297.366 -2.76933 -0.290764)
(300.94 -2.73492 -0.329443)
(305.075 -2.79698 -0.375087)
(309.913 -2.9621 -0.429961)
(315.638 -3.24567 -0.496968)
(322.501 -3.67685 -0.579876)
(330.872 -4.31014 -0.683546)
(341.315 -5.25135 -0.814133)
(354.782 -6.71956 -0.979314)
(372.692 -9.23307 -1.18808)
(403.228 -14.0824 -1.45279)
(276.268 -12.0127 -0.0101999)
(278.636 -9.00318 -0.0213659)
(280.799 -7.03853 -0.0314741)
(282.75 -5.69507 -0.0407647)
(284.689 -4.72879 -0.0496666)
(286.745 -4.01936 -0.0586476)
(288.987 -3.50256 -0.0680477)
(291.468 -3.13854 -0.0781507)
(294.24 -2.89962 -0.0893065)
(297.37 -2.76742 -0.101952)
(300.949 -2.73261 -0.116578)
(305.09 -2.79421 -0.133754)
(309.936 -2.95878 -0.154208)
(315.67 -3.24167 -0.178918)
(322.547 -3.67205 -0.209185)
(330.935 -4.30439 -0.246672)
(341.4 -5.2444 -0.293431)
(354.895 -6.71104 -0.35196)
(372.842 -9.22222 -0.425023)
(403.433 -14.0701 -0.517525)
(276.268 -12.0127 0.00996945)
(278.636 -9.00318 0.0208628)
(280.799 -7.03853 0.0306962)
(282.75 -5.69507 0.0396811)
(284.69 -4.72879 0.0482762)
(286.745 -4.01936 0.0569411)
(288.987 -3.50256 0.0660056)
(291.468 -3.13854 0.0757828)
(294.24 -2.89962 0.0866545)
(297.37 -2.76742 0.0990551)
(300.949 -2.73261 0.113454)
(305.09 -2.79421 0.1304)
(309.936 -2.95878 0.150613)
(315.67 -3.24167 0.175069)
(322.547 -3.67205 0.205066)
(330.935 -4.30439 0.242267)
(341.4 -5.24441 0.288728)
(354.895 -6.71104 0.346947)
(372.842 -9.22221 0.419678)
(403.433 -14.0701 0.511784)
(276.268 -12.0132 0.029998)
(278.638 -9.00417 0.0627635)
(280.803 -7.03951 0.0923461)
(282.755 -5.69578 0.119428)
(284.695 -4.72934 0.145247)
(286.749 -4.02001 0.170947)
(288.99 -3.50348 0.197241)
(291.47 -3.13977 0.224787)
(294.239 -2.90118 0.25455)
(297.366 -2.76932 0.287847)
(300.94 -2.73491 0.326258)
(305.075 -2.79697 0.371647)
(309.913 -2.96209 0.426305)
(315.638 -3.24566 0.493138)
(322.501 -3.67684 0.575894)
(330.872 -4.31014 0.679394)
(341.315 -5.25136 0.809748)
(354.782 -6.71958 0.974602)
(372.692 -9.2331 1.18293)
(403.229 -14.0824 1.44709)
(276.269 -12.0146 0.0494957)
(278.641 -9.00654 0.103574)
(280.81 -7.04179 0.152536)
(282.765 -5.69751 0.197612)
(284.706 -4.73093 0.24083)
(286.76 -4.02212 0.284309)
(289.001 -3.50661 0.329614)
(291.478 -3.14429 0.378028)
(294.245 -2.90742 0.431005)
(297.367 -2.77763 0.490376)
(300.933 -2.74565 0.558454)
(305.058 -2.8105 0.638135)
(309.881 -2.9788 0.733027)
(315.587 -3.26596 0.847632)
(322.425 -3.70124 0.987649)
(330.763 -4.33921 1.16042)
(341.163 -5.28576 1.37547)
(354.576 -6.76017 1.64508)
(372.414 -9.28108 1.98475)
(402.844 -14.137 2.4116)
(276.27 -12.0173 0.0674653)
(278.647 -9.01107 0.141629)
(280.821 -7.04594 0.209406)
(282.779 -5.70073 0.270856)
(284.72 -4.73396 0.326262)
(286.772 -4.02553 0.377051)
(289.007 -3.51036 0.42537)
(291.478 -3.14805 0.473937)
(294.234 -2.9109 0.525853)
(297.343 -2.78065 0.584403)
(300.893 -2.74816 0.653257)
(304.997 -2.81255 0.736866)
(309.794 -2.98055 0.840759)
(315.466 -3.26781 0.971766)
(322.263 -3.70384 1.13835)
(330.549 -4.34357 1.35113)
(340.883 -5.29324 1.62359)
(354.211 -6.77258 1.97307)
(371.942 -9.30078 2.42202)
(402.199 -14.1641 2.99109)
(276.272 -12.0226 0.0810363)
(278.654 -9.01899 0.174041)
(280.835 -7.05316 0.265191)
(282.802 -5.70821 0.355501)
(284.753 -4.74467 0.446667)
(286.813 -4.04185 0.539985)
(289.052 -3.53388 0.635196)
(291.522 -3.17993 0.73221)
(294.273 -2.9521 0.832092)
(297.37 -2.832 0.936822)
(300.902 -2.81028 1.04914)
(304.98 -2.88589 1.17285)
(309.742 -3.06537 1.31323)
(315.368 -3.36427 1.47759)
(322.106 -3.81211 1.67591)
(330.317 -4.46395 1.92136)
(340.556 -5.42631 2.23119)
(353.763 -6.91935 2.62781)
(371.343 -9.46289 3.14111)
(401.369 -14.3414 3.79578)
(276.272 -12.0337 0.0813326)
(278.652 -9.03146 0.187103)
(280.825 -7.06071 0.268916)
(282.778 -5.71161 0.30792)
(284.705 -4.74379 0.316761)
(286.737 -4.03426 0.315761)
(288.947 -3.51706 0.317773)
(291.385 -3.15237 0.329428)
(294.101 -2.91331 0.355097)
(297.159 -2.78232 0.398752)
(300.647 -2.75087 0.46431)
(304.675 -2.81861 0.555621)
(309.381 -2.99275 0.676933)
(314.942 -3.28938 0.83398)
(321.603 -3.73853 1.03531)
(329.72 -4.39567 1.29351)
(339.844 -5.36774 1.62655)
(352.905 -6.87542 2.0595)
(370.302 -9.43894 2.62842)
(400.017 -14.3409 3.36071)
(276.271 -12.0638 0.0463784)
(278.664 -9.06647 0.303192)
(280.897 -7.10513 0.637718)
(282.915 -5.78321 0.944479)
(284.872 -4.85135 1.19541)
(286.894 -4.17882 1.39342)
(289.065 -3.69705 1.54731)
(291.444 -3.36548 1.6663)
(294.086 -3.15661 1.75909)
(297.058 -3.05247 1.83449)
(300.449 -3.04438 1.90167)
(304.373 -3.1322 1.96962)
(308.966 -3.32371 2.04705)
(314.407 -3.63585 2.14298)
(320.936 -4.09959 2.26796)
(328.908 -4.7714 2.43552)
(338.864 -5.75916 2.66391)
(351.725 -7.28453 2.97864)
(368.883 -9.86845 3.41832)
(398.226 -14.7932 4.01056)
(276.03 -12.087 -0.395365)
(278.066 -9.04772 -0.764034)
(280.071 -7.04012 -1.09225)
(281.954 -5.67929 -1.3152)
(283.809 -4.70842 -1.42138)
(285.732 -3.99708 -1.44455)
(287.798 -3.47924 -1.41561)
(290.062 -3.11576 -1.35132)
(292.579 -2.87998 -1.26079)
(295.417 -2.75435 -1.15035)
(298.667 -2.73022 -1.02437)
(302.443 -2.80728 -0.884588)
(306.886 -2.99318 -0.729864)
(312.173 -3.30494 -0.556351)
(318.546 -3.77385 -0.35769)
(326.358 -4.45689 -0.124532)
(336.148 -5.46265 0.157045)
(348.829 -7.01388 0.508762)
(365.79 -9.63194 0.968854)
(394.773 -14.5978 1.56188)
(276.227 -12.1176 2.79439)
(278.12 -9.20193 4.24732)
(279.747 -7.33538 4.61437)
(281.043 -6.07665 4.59482)
(282.277 -5.16829 4.46152)
(283.632 -4.49552 4.28194)
(285.184 -4.0009 4.07532)
(286.98 -3.64849 3.85777)
(289.068 -3.41382 3.6437)
(291.517 -3.28176 3.44101)
(294.414 -3.24582 3.25153)
(297.872 -3.30735 3.07498)
(302.026 -3.47507 2.91224)
(307.054 -3.76684 2.76611)
(313.198 -4.21485 2.64073)
(320.81 -4.87726 2.54145)
(330.431 -5.8643 2.47594)
(342.975 -7.40159 2.45711)
(359.845 -10.0123 2.51227)
(388.686 -14.9804 2.64127)
(275.083 -11.1269 -11.048)
(277.511 -8.75977 -8.59659)
(278.843 -7.36486 -7.11584)
(279.291 -6.41671 -6.07999)
(279.515 -5.70427 -5.27734)
(279.845 -5.15377 -4.63152)
(280.387 -4.72984 -4.10447)
(281.192 -4.40798 -3.66751)
(282.315 -4.17065 -3.29712)
(283.832 -4.00847 -2.97668)
(285.842 -3.92039 -2.69602)
(288.461 -3.91219 -2.44853)
(291.83 -3.99587 -2.22857)
(296.129 -4.19179 -2.03051)
(301.61 -4.53449 -1.8488)
(308.635 -5.08511 -1.6779)
(317.762 -5.95869 -1.51156)
(329.923 -7.3907 -1.34087)
(346.566 -9.91797 -1.14322)
(375.267 -14.8826 -0.964685)
(276.214 2.5488 12.03)
(278.067 3.72944 9.01581)
(279.639 3.82829 7.04746)
(280.863 3.52985 5.68014)
(282.013 3.09825 4.65499)
(283.27 2.5899 3.8532)
(284.711 2.01278 3.21326)
(286.379 1.37011 2.6946)
(288.323 0.660461 2.26646)
(290.61 -0.127256 1.90559)
(293.323 -1.0149 1.59604)
(296.564 -2.03477 1.32631)
(300.457 -3.2305 1.08715)
(305.159 -4.66325 0.870213)
(310.873 -6.42453 0.667583)
(317.881 -8.66001 0.471476)
(326.569 -11.6154 0.273601)
(337.478 -15.7323 0.0636192)
(351.178 -21.8725 -0.169689)
(369.996 -31.6144 -0.392614)
(318.67 1.26358 -1.49972)
(316.156 1.92011 -2.42105)
(314.399 1.86005 -2.63839)
(313.319 1.47527 -2.54808)
(312.792 0.98226 -2.37232)
(312.745 0.444543 -2.18329)
(313.132 -0.128863 -1.99999)
(313.933 -0.740939 -1.83139)
(315.151 -1.39953 -1.68437)
(316.812 -2.11945 -1.56255)
(318.973 -2.92419 -1.46697)
(321.716 -3.84599 -1.3974)
(325.147 -4.928 -1.35459)
(329.408 -6.23009 -1.34122)
(334.692 -7.84081 -1.36201)
(341.265 -9.89958 -1.42396)
(349.505 -12.6409 -1.53739)
(359.942 -16.4872 -1.71879)
(373.14 -22.2844 -1.98684)
(391.382 -31.491 -2.32275)
(320.62 0.510411 0.312378)
(319.688 0.861098 0.52472)
(319.236 0.777646 0.659465)
(319.264 0.434036 0.716371)
(319.645 -0.00254186 0.704569)
(320.313 -0.470501 0.645183)
(321.256 -0.964859 0.557956)
(322.491 -1.49518 0.454176)
(324.051 -2.07342 0.338819)
(325.982 -2.71556 0.213981)
(328.355 -3.44463 0.0802334)
(331.261 -4.29227 -0.0636094)
(334.815 -5.30097 -0.220932)
(339.165 -6.52935 -0.397486)
(344.508 -8.06359 -0.601483)
(351.112 -10.0395 -0.844004)
(359.358 -12.6864 -1.14013)
(369.781 -16.4194 -1.5112)
(382.936 -22.0804 -1.98509)
(401.114 -31.088 -2.55899)
(320.944 0.502391 -0.103927)
(320.539 0.740059 -0.277848)
(320.601 0.557625 -0.493317)
(321.065 0.12882 -0.689347)
(321.838 -0.388951 -0.839319)
(322.87 -0.927031 -0.947386)
(324.155 -1.47392 -1.02548)
(325.712 -2.0379 -1.08448)
(327.572 -2.63216 -1.13353)
(329.783 -3.27467 -1.18079)
(332.416 -3.99077 -1.23388)
(335.563 -4.81428 -1.2999)
(339.343 -5.789 -1.38597)
(343.903 -6.97395 -1.50012)
(349.442 -8.45491 -1.65223)
(356.233 -10.3665 -1.85501)
(364.659 -12.9363 -2.12531)
(375.263 -16.5759 -2.48585)
(388.602 -22.1247 -2.96693)
(407.028 -30.9915 -3.57712)
(320.937 0.589352 -0.10429)
(320.565 0.804464 -0.195336)
(320.697 0.591297 -0.268304)
(321.259 0.160398 -0.324957)
(322.164 -0.34441 -0.367367)
(323.361 -0.865115 -0.403261)
(324.835 -1.39249 -0.440156)
(326.593 -1.93529 -0.482982)
(328.659 -2.50754 -0.535318)
(331.079 -3.12793 -0.600623)
(333.921 -3.82203 -0.682553)
(337.276 -4.62326 -0.785077)
(341.26 -5.5745 -0.913007)
(346.025 -6.73353 -1.0729)
(351.771 -8.18474 -1.27398)
(358.776 -10.0613 -1.52893)
(367.428 -12.5888 -1.85475)
(378.279 -16.1767 -2.27399)
(391.889 -21.6614 -2.81606)
(410.665 -30.4477 -3.49294)
(320.93 0.625917 -0.087516)
(320.552 0.835249 -0.171724)
(320.702 0.599571 -0.247372)
(321.3 0.153511 -0.323293)
(322.251 -0.361269 -0.400582)
(323.506 -0.892659 -0.477623)
(325.047 -1.43216 -0.553885)
(326.881 -1.98689 -0.63049)
(329.033 -2.56931 -0.709723)
(331.547 -3.19701 -0.794555)
(334.491 -3.89467 -0.888541)
(337.956 -4.69496 -0.996061)
(342.06 -5.6401 -1.12276)
(346.954 -6.78731 -1.27608)
(352.842 -8.22032 -1.46579)
(360.006 -10.0716 -1.70449)
(368.839 -12.5659 -2.00833)
(379.901 -16.1109 -2.39791)
(393.757 -21.542 -2.89948)
(412.879 -30.2635 -3.52647)
(320.926 0.642676 -0.0680828)
(320.537 0.85641 -0.136017)
(320.681 0.614598 -0.194623)
(321.279 0.164692 -0.24878)
(322.236 -0.347957 -0.301353)
(323.5 -0.873602 -0.352874)
(325.057 -1.40566 -0.404016)
(326.914 -1.95167 -0.456568)
(329.098 -2.52408 -0.513076)
(331.652 -3.14049 -0.576437)
(334.645 -3.82573 -0.649943)
(338.167 -4.61259 -0.737583)
(342.338 -5.54339 -0.844369)
(347.312 -6.67517 -0.976645)
(353.293 -8.09134 -1.14245)
(360.567 -9.92377 -1.352)
(369.531 -12.3965 -1.61831)
(380.75 -15.9162 -1.95808)
(394.795 -21.3173 -2.39239)
(414.18 -30.0045 -2.93362)
(320.923 0.651472 -0.0484871)
(320.527 0.869705 -0.097882)
(320.664 0.625544 -0.140802)
(321.261 0.171936 -0.180102)
(322.22 -0.342157 -0.219186)
(323.488 -0.867416 -0.259679)
(325.052 -1.3986 -0.302105)
(326.92 -1.94374 -0.347175)
(329.118 -2.51518 -0.396218)
(331.691 -3.13031 -0.451084)
(334.708 -3.81379 -0.514059)
(338.26 -4.59827 -0.587951)
(342.468 -5.52584 -0.676279)
(347.487 -6.65321 -0.783526)
(353.524 -8.06335 -0.915449)
(360.866 -9.88765 -1.07947)
(369.913 -12.3496 -1.28515)
(381.237 -15.8556 -1.54479)
(395.412 -21.2396 -1.87382)
(414.984 -29.9089 -2.28315)
(320.922 0.65604 -0.028995)
(320.522 0.877205 -0.0588639)
(320.653 0.632367 -0.0850779)
(321.248 0.17673 -0.108863)
(322.207 -0.338233 -0.132287)
(323.477 -0.862747 -0.156568)
(325.043 -1.39217 -0.182052)
(326.915 -1.93496 -0.209099)
(329.118 -2.50352 -0.23853)
(331.699 -3.11521 -0.271557)
(334.727 -3.79464 -0.309643)
(338.294 -4.57446 -0.354519)
(342.521 -5.49673 -0.408343)
(347.564 -6.61808 -0.473914)
(353.633 -8.0214 -0.554875)
(361.014 -9.83798 -0.655926)
(370.113 -12.2913 -0.783054)
(381.5 -15.7875 -0.943843)
(395.756 -21.1608 -1.14758)
(415.444 -29.8207 -1.4019)
(320.921 0.658 -0.00970722)
(320.519 0.880574 -0.0197678)
(320.649 0.635627 -0.0286692)
(321.242 0.179106 -0.0367486)
(322.201 -0.336385 -0.044693)
(323.472 -0.860737 -0.0529861)
(325.039 -1.38957 -0.0618093)
(326.912 -1.9316 -0.0713107)
(329.118 -2.49931 -0.0817678)
(331.703 -3.10999 -0.0935733)
(334.736 -3.78822 -0.107191)
(338.309 -4.56664 -0.123177)
(342.545 -5.48726 -0.142245)
(347.6 -6.60671 -0.165349)
(353.683 -8.00785 -0.193739)
(361.083 -9.82191 -0.229025)
(370.206 -12.2723 -0.273228)
(381.624 -15.7651 -0.328887)
(395.92 -21.1344 -0.399068)
(415.665 -29.7918 -0.486741)
(320.921 0.658 0.00949981)
(320.519 0.880574 0.0193251)
(320.649 0.635628 0.0279808)
(321.242 0.179109 0.0357841)
(322.201 -0.336378 0.0434385)
(323.472 -0.860726 0.0514319)
(325.039 -1.38956 0.0599553)
(326.912 -1.93159 0.0691698)
(329.118 -2.49929 0.0793634)
(331.703 -3.10997 0.0909304)
(334.736 -3.7882 0.104326)
(338.309 -4.56662 0.120093)
(342.545 -5.48724 0.138935)
(347.6 -6.6067 0.161803)
(353.683 -8.00783 0.189947)
(361.083 -9.82191 0.224976)
(370.206 -12.2723 0.268907)
(381.624 -15.7651 0.324271)
(395.92 -21.1344 0.394119)
(415.665 -29.7919 0.481397)
(320.922 0.656038 0.028797)
(320.522 0.877203 0.0584381)
(320.653 0.632366 0.0844132)
(321.248 0.176736 0.107925)
(322.207 -0.338214 0.131056)
(323.477 -0.862718 0.155032)
(325.043 -1.39214 0.180217)
(326.915 -1.93492 0.206978)
(329.118 -2.50347 0.236136)
(331.699 -3.11514 0.268898)
(334.727 -3.79457 0.306728)
(338.294 -4.5744 0.351363)
(342.521 -5.49668 0.404977)
(347.564 -6.61803 0.470373)
(353.633 -8.02134 0.55118)
(361.014 -9.83793 0.652065)
(370.113 -12.2912 0.778974)
(381.5 -15.7875 0.939459)
(395.757 -21.1608 1.14278)
(415.445 -29.8208 1.3966)
(320.923 0.65147 0.0483087)
(320.527 0.869701 0.0974909)
(320.664 0.625543 0.140184)
(321.261 0.171949 0.179212)
(322.22 -0.342118 0.217992)
(323.489 -0.867359 0.258166)
(325.052 -1.39854 0.300288)
(326.92 -1.94366 0.345086)
(329.118 -2.51507 0.393889)
(331.691 -3.13018 0.448524)
(334.708 -3.81366 0.511255)
(338.26 -4.59816 0.584885)
(342.468 -5.52575 0.672955)
(347.487 -6.65313 0.779973)
(353.524 -8.06327 0.911705)
(360.866 -9.88757 1.07556)
(369.913 -12.3496 1.28106)
(381.237 -15.8556 1.54045)
(395.412 -21.2396 1.86916)
(414.985 -29.9089 2.27805)
(320.926 0.642669 0.0679372)
(320.537 0.856399 0.135684)
(320.681 0.614589 0.194085)
(321.28 0.164708 0.247973)
(322.236 -0.347898 0.300229)
(323.5 -0.873511 0.351409)
(325.057 -1.40556 0.402214)
(326.914 -1.95154 0.454461)
(329.098 -2.5239 0.510715)
(331.652 -3.14029 0.573869)
(334.645 -3.82553 0.647193)
(338.167 -4.61241 0.734651)
(342.339 -5.54323 0.841242)
(347.312 -6.67502 0.973302)
(353.293 -8.09121 1.13887)
(360.567 -9.92366 1.34816)
(369.531 -12.3964 1.61421)
(380.75 -15.9162 1.95372)
(394.796 -21.3173 2.38775)
(414.181 -30.0046 2.92865)
(320.93 0.625902 0.0874198)
(320.553 0.835225 0.171479)
(320.702 0.59955 0.246955)
(321.3 0.153531 0.322607)
(322.252 -0.36118 0.39956)
(323.506 -0.892511 0.476253)
(325.047 -1.43198 0.552194)
(326.881 -1.98666 0.628509)
(329.033 -2.56903 0.707466)
(331.547 -3.19672 0.792034)
(334.491 -3.8944 0.885794)
(337.956 -4.6947 0.993151)
(342.06 -5.63985 1.11975)
(346.954 -6.78705 1.27298)
(352.843 -8.22008 1.46256)
(360.007 -10.0714 1.70105)
(368.84 -12.5657 2.00458)
(379.901 -16.1109 2.39381)
(393.758 -21.542 2.89502)
(412.881 -30.2635 3.52167)
(320.937 0.589319 0.104267)
(320.565 0.80441 0.195221)
(320.697 0.591243 0.268062)
(321.26 0.160406 0.324427)
(322.165 -0.344297 0.366431)
(323.362 -0.864909 0.401915)
(324.836 -1.39222 0.438484)
(326.594 -1.93496 0.481079)
(328.66 -2.50713 0.533221)
(331.08 -3.12751 0.598299)
(333.922 -3.82165 0.679979)
(337.276 -4.62292 0.782292)
(341.261 -5.57416 0.9101)
(346.026 -6.73316 1.06995)
(351.772 -8.18435 1.27098)
(358.777 -10.0609 1.52582)
(367.43 -12.5886 1.85141)
(378.281 -16.1765 2.27033)
(391.891 -21.6613 2.81203)
(410.668 -30.4476 3.48853)
(320.944 0.502322 0.104011)
(320.539 0.739941 0.27795)
(320.602 0.557504 0.493359)
(321.067 0.128817 0.689094)
(321.839 -0.38876 0.838583)
(322.872 -0.926683 0.946168)
(324.157 -1.47349 1.0239)
(325.713 -2.0374 1.08267)
(327.573 -2.63159 1.13156)
(329.784 -3.27408 1.17868)
(332.417 -3.99023 1.23162)
(335.565 -4.8138 1.2975)
(339.344 -5.78855 1.38348)
(343.904 -6.9735 1.49756)
(349.443 -8.45446 1.6496)
(356.235 -10.3661 1.85229)
(364.662 -12.936 2.12242)
(375.266 -16.5756 2.48273)
(388.606 -22.1244 2.9635)
(407.032 -30.9913 3.57335)
(320.62 0.510267 -0.312157)
(319.688 0.860827 -0.524271)
(319.237 0.777345 -0.658863)
(319.265 0.433908 -0.716105)
(319.648 -0.00231557 -0.704888)
(320.316 -0.469969 -0.646084)
(321.259 -0.964169 -0.559248)
(322.494 -1.49443 -0.455697)
(324.054 -2.07263 -0.340522)
(325.985 -2.71475 -0.215846)
(328.358 -3.44378 -0.0822137)
(331.264 -4.29142 0.061573)
(334.819 -5.30014 0.218886)
(339.169 -6.52859 0.395445)
(344.512 -8.06292 0.599419)
(351.117 -10.0389 0.841862)
(359.363 -12.6858 1.13784)
(369.787 -16.4188 1.50873)
(382.943 -22.0798 1.9824)
(401.121 -31.0874 2.55607)
(318.67 1.26332 1.49996)
(316.156 1.91957 2.42166)
(314.399 1.85934 2.63938)
(313.319 1.47484 2.54895)
(312.794 0.982369 2.37278)
(312.747 0.445162 2.18324)
(313.135 -0.127927 1.99954)
(313.937 -0.739926 1.83069)
(315.155 -1.39858 1.6835)
(316.817 -2.11852 1.56151)
(318.979 -2.92318 1.46574)
(321.722 -3.8449 1.39602)
(325.153 -4.92692 1.35313)
(329.415 -6.22915 1.33975)
(334.699 -7.84005 1.36054)
(341.273 -9.89896 1.42243)
(349.513 -12.6403 1.53572)
(359.951 -16.4866 1.71692)
(373.149 -22.2838 1.98476)
(391.393 -31.4903 2.32051)
(276.214 2.54849 -12.0299)
(278.067 3.7287 -9.01563)
(279.637 3.82718 -7.04705)
(280.861 3.52905 -5.67951)
(282.01 3.09803 -4.65437)
(283.267 2.59022 -3.8527)
(284.707 2.01346 -3.21292)
(286.375 1.37088 -2.69441)
(288.319 0.661161 -2.26635)
(290.606 -0.126575 -1.90554)
(293.32 -1.01412 -1.5961)
(296.561 -2.03389 -1.32652)
(300.455 -3.22965 -1.08749)
(305.157 -4.66256 -0.870625)
(310.872 -6.42404 -0.668036)
(317.881 -8.65964 -0.471984)
(326.57 -11.6151 -0.274209)
(337.481 -15.732 -0.0643703)
(351.182 -21.8722 0.168777)
(370.002 -31.6143 0.391586)
(276.021 -0.772973 12.0071)
(278.018 -1.56471 8.87485)
(279.953 -2.32641 6.76803)
(281.736 -3.00202 5.29846)
(283.458 -3.59281 4.2082)
(285.214 -4.14703 3.36319)
(287.074 -4.71254 2.69388)
(289.089 -5.32612 2.15706)
(291.307 -6.02134 1.72021)
(293.786 -6.83473 1.35845)
(296.611 -7.80856 1.05328)
(299.87 -8.99462 0.791612)
(303.67 -10.4592 0.563305)
(308.136 -12.2919 0.359538)
(313.419 -14.6195 0.17214)
(319.711 -17.6292 -0.00699656)
(327.246 -21.6072 -0.18652)
(336.295 -27.0004 -0.376693)
(347.034 -34.5235 -0.588802)
(360.359 -45.1659 -0.800582)
(320.607 -0.670129 -0.741043)
(319.641 -1.26841 -1.34738)
(319.137 -1.80279 -1.53295)
(319.094 -2.28495 -1.47691)
(319.388 -2.73581 -1.35257)
(319.949 -3.19014 -1.22985)
(320.766 -3.68365 -1.12328)
(321.853 -4.24659 -1.03494)
(323.236 -4.90696 -0.967628)
(324.96 -5.69557 -0.923243)
(327.081 -6.64945 -0.902098)
(329.679 -7.81458 -0.904749)
(332.852 -9.25104 -0.932277)
(336.717 -11.041 -0.987655)
(341.422 -13.3024 -1.07607)
(347.155 -16.2094 -1.20515)
(354.15 -20.029 -1.38554)
(362.684 -25.1822 -1.63288)
(372.949 -32.3483 -1.96446)
(385.86 -42.3986 -2.36112)
(343.058 -1.36721 1.02149)
(340.791 -2.15972 1.44166)
(338.989 -2.6176 1.51324)
(337.847 -2.96429 1.44869)
(337.254 -3.28057 1.31617)
(337.079 -3.60825 1.14345)
(337.267 -3.98431 0.951617)
(337.813 -4.44099 0.754386)
(338.73 -5.0067 0.557718)
(340.045 -5.71045 0.362571)
(341.805 -6.58637 0.167803)
(344.083 -7.67769 -0.0290703)
(346.967 -9.04161 -0.232735)
(350.571 -10.7568 -0.450336)
(355.037 -12.9358 -0.691505)
(360.552 -15.7462 -0.968354)
(367.349 -19.4466 -1.29604)
(375.712 -24.4474 -1.69454)
(385.835 -31.4125 -2.18733)
(398.646 -41.1551 -2.76742)
(345.037 -1.88218 -0.123559)
(344.448 -2.84651 -0.210012)
(343.898 -3.29444 -0.339529)
(343.584 -3.59608 -0.467582)
(343.557 -3.87243 -0.560547)
(343.79 -4.16535 -0.62441)
(344.281 -4.50724 -0.673546)
(345.052 -4.92848 -0.718063)
(346.139 -5.45678 -0.764665)
(347.588 -6.12046 -0.819019)
(349.457 -6.95305 -0.886306)
(351.825 -7.99702 -0.971566)
(354.786 -9.30821 -1.08053)
(358.458 -10.9633 -1.22033)
(362.988 -13.0723 -1.40008)
(368.565 -15.8001 -1.63146)
(375.428 -19.4015 -1.92957)
(383.871 -24.2814 -2.31415)
(394.09 -31.0969 -2.80945)
(407.051 -40.6399 -3.41618)
(345.093 -1.82341 -0.169452)
(344.736 -2.83647 -0.216414)
(344.576 -3.33548 -0.231218)
(344.684 -3.66715 -0.256148)
(345.069 -3.96152 -0.285229)
(345.7 -4.26362 -0.316422)
(346.569 -4.6054 -0.353978)
(347.692 -5.01761 -0.401638)
(349.104 -5.52934 -0.461778)
(350.849 -6.17038 -0.536689)
(352.991 -6.97512 -0.629122)
(355.61 -7.98629 -0.742444)
(358.807 -9.25937 -0.881105)
(362.701 -10.8702 -1.05138)
(367.445 -12.9274 -1.26203)
(373.236 -15.5941 -1.5248)
(380.318 -19.1226 -1.85496)
(388.995 -23.9141 -2.27191)
(399.467 -30.6214 -2.79934)
(412.74 -40.0296 -3.44124)
(345.067 -1.75105 -0.114528)
(344.708 -2.79015 -0.186286)
(344.63 -3.33574 -0.234855)
(344.87 -3.69546 -0.292116)
(345.402 -4.00472 -0.358339)
(346.191 -4.31754 -0.426214)
(347.228 -4.66832 -0.493478)
(348.528 -5.08732 -0.561833)
(350.122 -5.60284 -0.634237)
(352.053 -6.24405 -0.713973)
(354.383 -7.04471 -0.804666)
(357.194 -8.04685 -0.910615)
(360.584 -9.30517 -1.03728)
(364.677 -10.8945 -1.19179)
(369.628 -12.9226 -1.3834)
(375.638 -15.5508 -1.62383)
(382.958 -19.0299 -1.92769)
(391.897 -23.7584 -2.31299)
(402.663 -30.3862 -2.80135)
(416.31 -39.6976 -3.39857)
(345.054 -1.71819 -0.0795767)
(344.673 -2.75949 -0.146133)
(344.596 -3.32333 -0.192829)
(344.86 -3.69411 -0.236284)
(345.428 -4.00558 -0.283103)
(346.262 -4.31692 -0.331933)
(347.354 -4.66513 -0.381723)
(348.723 -5.08052 -0.433872)
(350.396 -5.59089 -0.490974)
(352.417 -6.22505 -0.555884)
(354.847 -7.01659 -0.6317)
(357.767 -8.00734 -0.72214)
(361.276 -9.2517 -0.831927)
(365.501 -10.824 -0.96713)
(370.598 -12.8313 -1.13547)
(376.769 -15.4339 -1.34663)
(384.273 -18.8813 -1.61273)
(393.423 -23.5706 -1.94874)
(404.433 -30.1495 -2.37268)
(418.393 -39.4021 -2.89052)
(345.048 -1.70204 -0.053822)
(344.652 -2.73877 -0.103681)
(344.566 -3.30952 -0.140745)
(344.832 -3.68736 -0.173148)
(345.411 -4.00146 -0.207756)
(346.259 -4.3125 -0.245886)
(347.371 -4.65946 -0.28679)
(348.763 -5.07325 -0.330587)
(350.467 -5.58152 -0.378557)
(352.526 -6.21286 -0.432592)
(355.001 -7.00073 -0.494943)
(357.974 -7.98681 -0.568339)
(361.546 -9.22526 -0.656234)
(365.843 -10.79 -0.763069)
(371.025 -12.7875 -0.894531)
(377.296 -15.3776 -1.05785)
(384.916 -18.809 -1.26212)
(394.207 -23.4778 -1.51867)
(405.383 -30.031 -1.84113)
(419.568 -39.2537 -2.23533)
(345.045 -1.69369 -0.0313383)
(344.641 -2.72636 -0.0616113)
(344.547 -3.29972 -0.0851142)
(344.812 -3.68176 -0.105182)
(345.394 -3.99781 -0.12598)
(346.247 -4.30842 -0.148981)
(347.364 -4.65373 -0.173915)
(348.764 -5.06529 -0.200719)
(350.479 -5.57081 -0.230123)
(352.553 -6.19878 -0.263343)
(355.047 -6.9826 -0.301815)
(358.044 -7.96396 -0.347219)
(361.646 -9.19693 -0.401662)
(365.98 -10.7554 -0.46789)
(371.207 -12.7455 -0.549464)
(377.532 -15.3269 -0.650931)
(385.221 -18.7481 -0.777998)
(394.594 -23.405 -0.937723)
(405.871 -29.9444 -1.13846)
(420.191 -39.1526 -1.3844)
(345.044 -1.69007 -0.0103654)
(344.637 -2.72066 -0.0205623)
(344.539 -3.29482 -0.0286771)
(344.803 -3.67876 -0.0355871)
(345.385 -3.99584 -0.0426452)
(346.24 -4.30633 -0.0504737)
(347.359 -4.65088 -0.0590653)
(348.762 -5.06141 -0.0684076)
(350.481 -5.56571 -0.0787278)
(352.56 -6.19223 -0.0904142)
(355.062 -6.97432 -0.103929)
(358.068 -7.95365 -0.119819)
(361.682 -9.18431 -0.138789)
(366.032 -10.7401 -0.161771)
(371.278 -12.7272 -0.189986)
(377.628 -15.3051 -0.224992)
(385.347 -18.7223 -0.268733)
(394.758 -23.3747 -0.323601)
(406.082 -29.9089 -0.392403)
(420.466 -39.1126 -0.476766)
(345.044 -1.69007 0.0101715)
(344.637 -2.72066 0.0201479)
(344.539 -3.29482 0.0280291)
(344.803 -3.67875 0.034672)
(345.385 -3.99583 0.0414522)
(346.24 -4.30632 0.0489969)
(347.359 -4.65086 0.0573019)
(348.762 -5.06138 0.0663608)
(350.481 -5.56568 0.0764149)
(352.56 -6.19219 0.0878653)
(355.062 -6.97429 0.10117)
(358.068 -7.95363 0.116858)
(361.682 -9.18428 0.135616)
(366.032 -10.7401 0.158375)
(371.278 -12.7271 0.186361)
(377.628 -15.3051 0.221133)
(385.346 -18.7223 0.264627)
(394.758 -23.3747 0.319223)
(406.082 -29.9089 0.387704)
(420.466 -39.1126 0.471682)
(345.045 -1.69369 0.0311542)
(344.641 -2.72636 0.0612145)
(344.547 -3.29971 0.0844902)
(344.812 -3.68175 0.104291)
(345.394 -3.99777 0.124807)
(346.247 -4.30838 0.14752)
(347.364 -4.65367 0.172166)
(348.764 -5.0652 0.198684)
(350.479 -5.57071 0.227812)
(352.553 -6.19867 0.260774)
(355.047 -6.98251 0.299009)
(358.044 -7.96387 0.344195)
(361.646 -9.19685 0.398441)
(365.98 -10.7553 0.464496)
(371.206 -12.7454 0.545917)
(377.532 -15.3268 0.647223)
(385.221 -18.748 0.774085)
(394.594 -23.405 0.933527)
(405.871 -29.9444 1.13388)
(420.191 -39.1527 1.37934)
(345.048 -1.70205 0.0536584)
(344.652 -2.73878 0.10332)
(344.566 -3.30952 0.140168)
(344.832 -3.68733 0.172302)
(345.411 -4.0014 0.206614)
(346.259 -4.31241 0.244437)
(347.371 -4.65934 0.285043)
(348.763 -5.07309 0.328564)
(350.467 -5.58134 0.376291)